<?xml version="1.0" encoding="UTF-8"?>

<!-- generated on 04/05/20 20:14:22 by Eclipse SUMO Version 1.4.0
<configuration xmlns:xsi="http://www.w3.org/2001/XMLSchema-instance" xsi:noNamespaceSchemaLocation="http://sumo.dlr.de/xsd/sumoConfiguration.xsd">

    <input>
        <net-file value="d:\GitHub\ly_schoolhelper\路网提升\人工交互_1.27/gnet.net.xml"/>
        <route-files value="d:\GitHub\ly_schoolhelper\路网提升\人工交互_1.27/grou.rou.xml"/>
        <additional-files value="d:\GitHub\ly_schoolhelper\路网提升\人工交互_1.27/gadd.additional.xml"/>
    </input>

    <output>
        <queue-output value="d:\GitHub\ly_schoolhelper\路网提升\人工交互_1.27/Queue.xml"/>
        <summary-output value="d:\GitHub\ly_schoolhelper\路网提升\人工交互_1.27/Summary.xml"/>
        <tripinfo-output value="d:\GitHub\ly_schoolhelper\路网提升\人工交互_1.27/output-tripinfos.xml"/>
    </output>

    <time>
        <begin value="0"/>
        <end value="3600"/>
    </time>

    <processing>
        <time-to-teleport value="3600"/>
    </processing>

    <traci_server>
        <remote-port value="63945"/>
    </traci_server>

    <gui_only>
        <gui-settings-file value="d:\GitHub\ly_schoolhelper\路网提升\人工交互_1.27/gview.view.xml"/>
        <quit-on-end value="true"/>
        <start value="true"/>
    </gui_only>

</configuration>
-->

<tripinfos xmlns:xsi="http://www.w3.org/2001/XMLSchema-instance" xsi:noNamespaceSchemaLocation="http://sumo.dlr.de/xsd/tripinfo_file.xsd">
    <tripinfo id="flow3.0" depart="3.00" departLane="10_0" departPos="5.10" departSpeed="0.00" departDelay="3.00" arrival="35.00" arrivalLane="2_0" arrivalPos="219.91" arrivalSpeed="31.04" duration="32.00" routeLength="548.96" waitingTime="0.00" waitingCount="0" stopTime="0.00" timeLoss="17.58" rerouteNo="0" devices="tripinfo_flow3.0" vType="DEFAULT_VEHTYPE" speedFactor="1.08" vaporized=""/>
    <tripinfo id="flow8.0" depart="2.00" departLane="4_0" departPos="5.10" departSpeed="0.00" departDelay="2.00" arrival="51.00" arrivalLane="2_0" arrivalPos="219.91" arrivalSpeed="30.83" duration="49.00" routeLength="483.08" waitingTime="13.00" waitingCount="1" stopTime="0.00" timeLoss="35.70" rerouteNo="0" devices="tripinfo_flow8.0" vType="DEFAULT_VEHTYPE" speedFactor="0.94" vaporized=""/>
    <tripinfo id="flow5.0" depart="0.00" departLane="1_0" departPos="5.10" departSpeed="0.00" departDelay="0.00" arrival="52.00" arrivalLane="3_0" arrivalPos="239.09" arrivalSpeed="30.59" duration="52.00" routeLength="482.91" waitingTime="17.00" waitingCount="1" stopTime="0.00" timeLoss="37.22" rerouteNo="0" devices="tripinfo_flow5.0" vType="DEFAULT_VEHTYPE" speedFactor="0.83" vaporized=""/>
    <tripinfo id="flow9.0" depart="5.00" departLane="4_0" departPos="5.10" departSpeed="0.00" departDelay="5.00" arrival="55.00" arrivalLane="5_0" arrivalPos="241.33" arrivalSpeed="31.63" duration="50.00" routeLength="486.65" waitingTime="10.00" waitingCount="1" stopTime="0.00" timeLoss="33.98" rerouteNo="0" devices="tripinfo_flow9.0" vType="DEFAULT_VEHTYPE" speedFactor="0.86" vaporized=""/>
    <tripinfo id="flow8.1" depart="10.00" departLane="4_0" departPos="5.10" departSpeed="0.00" departDelay="-0.71" arrival="56.00" arrivalLane="2_0" arrivalPos="219.91" arrivalSpeed="32.13" duration="46.00" routeLength="483.08" waitingTime="8.00" waitingCount="1" stopTime="0.00" timeLoss="32.35" rerouteNo="0" devices="tripinfo_flow8.1" vType="DEFAULT_VEHTYPE" speedFactor="0.94" vaporized=""/>
    <tripinfo id="flow8.2" depart="21.00" departLane="4_0" departPos="5.10" departSpeed="0.00" departDelay="-0.43" arrival="57.00" arrivalLane="2_0" arrivalPos="219.91" arrivalSpeed="31.81" duration="36.00" routeLength="483.08" waitingTime="0.00" waitingCount="0" stopTime="0.00" timeLoss="23.14" rerouteNo="0" devices="tripinfo_flow8.2" vType="DEFAULT_VEHTYPE" speedFactor="0.95" vaporized=""/>
    <tripinfo id="flow10.0" depart="0.00" departLane="4_0" departPos="5.10" departSpeed="0.00" departDelay="0.00" arrival="62.00" arrivalLane="9_0" arrivalPos="151.66" arrivalSpeed="36.27" duration="62.00" routeLength="572.25" waitingTime="24.00" waitingCount="2" stopTime="0.00" timeLoss="44.46" rerouteNo="0" devices="tripinfo_flow10.0" vType="DEFAULT_VEHTYPE" speedFactor="0.94" vaporized=""/>
    <tripinfo id="flow6.0" depart="3.00" departLane="1_0" departPos="5.10" departSpeed="0.00" departDelay="3.00" arrival="62.00" arrivalLane="5_0" arrivalPos="241.33" arrivalSpeed="32.49" duration="59.00" routeLength="482.55" waitingTime="19.00" waitingCount="2" stopTime="0.00" timeLoss="45.76" rerouteNo="0" devices="tripinfo_flow6.0" vType="DEFAULT_VEHTYPE" speedFactor="1.05" vaporized=""/>
    <tripinfo id="flow8.3" depart="32.00" departLane="4_0" departPos="5.10" departSpeed="0.00" departDelay="-0.14" arrival="66.00" arrivalLane="2_0" arrivalPos="219.91" arrivalSpeed="30.88" duration="34.00" routeLength="483.08" waitingTime="0.00" waitingCount="0" stopTime="0.00" timeLoss="20.13" rerouteNo="0" devices="tripinfo_flow8.3" vType="DEFAULT_VEHTYPE" speedFactor="0.90" vaporized=""/>
    <tripinfo id="flow7.0" depart="6.00" departLane="1_0" departPos="5.10" departSpeed="0.00" departDelay="6.00" arrival="67.00" arrivalLane="9_0" arrivalPos="151.66" arrivalSpeed="34.29" duration="61.00" routeLength="538.42" waitingTime="16.00" waitingCount="2" stopTime="0.00" timeLoss="44.18" rerouteNo="0" devices="tripinfo_flow7.0" vType="DEFAULT_VEHTYPE" speedFactor="0.89" vaporized=""/>
    <tripinfo id="flow1.0" depart="0.00" departLane="10_0" departPos="5.10" departSpeed="0.00" departDelay="0.00" arrival="68.00" arrivalLane="5_0" arrivalPos="241.33" arrivalSpeed="30.28" duration="68.00" routeLength="566.36" waitingTime="29.00" waitingCount="1" stopTime="0.00" timeLoss="54.19" rerouteNo="0" devices="tripinfo_flow1.0" vType="DEFAULT_VEHTYPE" speedFactor="1.06" vaporized=""/>
    <tripinfo id="flow1.1" depart="6.00" departLane="10_0" departPos="5.10" departSpeed="0.00" departDelay="3.28" arrival="70.00" arrivalLane="5_0" arrivalPos="241.33" arrivalSpeed="32.37" duration="64.00" routeLength="566.36" waitingTime="24.00" waitingCount="1" stopTime="0.00" timeLoss="50.57" rerouteNo="0" devices="tripinfo_flow1.1" vType="DEFAULT_VEHTYPE" speedFactor="1.09" vaporized=""/>
    <tripinfo id="flow2.1" depart="6.00" departLane="15_0" departPos="5.10" departSpeed="0.00" departDelay="3.28" arrival="72.00" arrivalLane="9_1" arrivalPos="151.66" arrivalSpeed="36.33" duration="66.00" routeLength="578.86" waitingTime="25.00" waitingCount="2" stopTime="0.00" timeLoss="48.70" rerouteNo="0" devices="tripinfo_flow2.1" vType="DEFAULT_VEHTYPE" speedFactor="1.03" vaporized=""/>
    <tripinfo id="flow2.0" depart="0.00" departLane="15_0" departPos="5.10" departSpeed="0.00" departDelay="0.00" arrival="73.00" arrivalLane="9_0" arrivalPos="151.66" arrivalSpeed="35.82" duration="73.00" routeLength="578.86" waitingTime="33.00" waitingCount="2" stopTime="0.00" timeLoss="55.22" rerouteNo="0" devices="tripinfo_flow2.0" vType="DEFAULT_VEHTYPE" speedFactor="1.01" vaporized=""/>
    <tripinfo id="flow4.0" depart="3.00" departLane="15_0" departPos="5.10" departSpeed="0.00" departDelay="3.00" arrival="85.00" arrivalLane="3_0" arrivalPos="239.09" arrivalSpeed="32.24" duration="82.00" routeLength="509.28" waitingTime="44.00" waitingCount="1" stopTime="0.00" timeLoss="65.30" rerouteNo="0" devices="tripinfo_flow4.0" vType="DEFAULT_VEHTYPE" speedFactor="1.03" vaporized=""/>
    <tripinfo id="flow3.1" depart="36.00" departLane="10_0" departPos="5.10" departSpeed="0.00" departDelay="7.65" arrival="85.00" arrivalLane="2_0" arrivalPos="219.91" arrivalSpeed="30.38" duration="49.00" routeLength="548.96" waitingTime="11.00" waitingCount="1" stopTime="0.00" timeLoss="33.66" rerouteNo="0" devices="tripinfo_flow3.1" vType="DEFAULT_VEHTYPE" speedFactor="1.02" vaporized=""/>
    <tripinfo id="flow5.1" depart="10.00" departLane="1_0" departPos="5.10" departSpeed="0.00" departDelay="-0.68" arrival="103.00" arrivalLane="3_0" arrivalPos="239.09" arrivalSpeed="31.79" duration="93.00" routeLength="482.91" waitingTime="47.00" waitingCount="3" stopTime="0.00" timeLoss="79.15" rerouteNo="0" devices="tripinfo_flow5.1" vType="DEFAULT_VEHTYPE" speedFactor="0.88" vaporized=""/>
    <tripinfo id="flow8.4" depart="42.00" departLane="4_0" departPos="5.10" departSpeed="0.00" departDelay="-0.86" arrival="104.00" arrivalLane="2_0" arrivalPos="219.91" arrivalSpeed="32.40" duration="62.00" routeLength="483.08" waitingTime="25.00" waitingCount="1" stopTime="0.00" timeLoss="46.91" rerouteNo="0" devices="tripinfo_flow8.4" vType="DEFAULT_VEHTYPE" speedFactor="0.85" vaporized=""/>
    <tripinfo id="flow5.2" depart="21.00" departLane="1_0" departPos="5.10" departSpeed="0.00" departDelay="-0.36" arrival="105.00" arrivalLane="3_0" arrivalPos="239.09" arrivalSpeed="34.81" duration="84.00" routeLength="482.91" waitingTime="35.00" waitingCount="3" stopTime="0.00" timeLoss="70.23" rerouteNo="0" devices="tripinfo_flow5.2" vType="DEFAULT_VEHTYPE" speedFactor="0.92" vaporized=""/>
    <tripinfo id="flow8.5" depart="53.00" departLane="4_0" departPos="5.10" departSpeed="0.00" departDelay="-0.57" arrival="105.00" arrivalLane="2_0" arrivalPos="219.91" arrivalSpeed="29.51" duration="52.00" routeLength="483.08" waitingTime="17.00" waitingCount="1" stopTime="0.00" timeLoss="39.29" rerouteNo="0" devices="tripinfo_flow8.5" vType="DEFAULT_VEHTYPE" speedFactor="0.97" vaporized=""/>
    <tripinfo id="flow5.3" depart="35.00" departLane="1_0" departPos="5.10" departSpeed="0.00" departDelay="2.95" arrival="107.00" arrivalLane="3_0" arrivalPos="239.09" arrivalSpeed="36.00" duration="72.00" routeLength="482.91" waitingTime="31.00" waitingCount="1" stopTime="0.00" timeLoss="60.24" rerouteNo="0" devices="tripinfo_flow5.3" vType="DEFAULT_VEHTYPE" speedFactor="1.10" vaporized=""/>
    <tripinfo id="flow8.6" depart="64.00" departLane="4_0" departPos="5.10" departSpeed="0.00" departDelay="-0.28" arrival="107.00" arrivalLane="2_0" arrivalPos="219.91" arrivalSpeed="31.77" duration="43.00" routeLength="483.08" waitingTime="8.00" waitingCount="1" stopTime="0.00" timeLoss="29.87" rerouteNo="0" devices="tripinfo_flow8.6" vType="DEFAULT_VEHTYPE" speedFactor="0.97" vaporized=""/>
    <tripinfo id="flow8.7" depart="75.00" departLane="4_0" departPos="5.10" departSpeed="0.00" departDelay="0.00" arrival="108.00" arrivalLane="2_0" arrivalPos="219.91" arrivalSpeed="31.21" duration="33.00" routeLength="483.08" waitingTime="0.00" waitingCount="0" stopTime="0.00" timeLoss="20.66" rerouteNo="0" devices="tripinfo_flow8.7" vType="DEFAULT_VEHTYPE" speedFactor="1.00" vaporized=""/>
    <tripinfo id="flow5.4" depart="42.00" departLane="1_0" departPos="5.10" departSpeed="0.00" departDelay="-0.73" arrival="109.00" arrivalLane="3_0" arrivalPos="239.09" arrivalSpeed="32.22" duration="67.00" routeLength="482.91" waitingTime="30.00" waitingCount="1" stopTime="0.00" timeLoss="52.93" rerouteNo="0" devices="tripinfo_flow5.4" vType="DEFAULT_VEHTYPE" speedFactor="0.88" vaporized=""/>
    <tripinfo id="flow8.8" depart="85.00" departLane="4_0" departPos="5.10" departSpeed="0.00" departDelay="-0.71" arrival="110.00" arrivalLane="2_0" arrivalPos="219.91" arrivalSpeed="34.07" duration="25.00" routeLength="483.08" waitingTime="0.00" waitingCount="0" stopTime="0.00" timeLoss="11.24" rerouteNo="0" devices="tripinfo_flow8.8" vType="DEFAULT_VEHTYPE" speedFactor="0.92" vaporized=""/>
    <tripinfo id="flow5.5" depart="57.00" departLane="1_0" departPos="5.10" departSpeed="0.00" departDelay="3.59" arrival="111.00" arrivalLane="3_0" arrivalPos="239.09" arrivalSpeed="33.83" duration="54.00" routeLength="482.91" waitingTime="17.00" waitingCount="1" stopTime="0.00" timeLoss="41.43" rerouteNo="0" devices="tripinfo_flow5.5" vType="DEFAULT_VEHTYPE" speedFactor="1.02" vaporized=""/>
    <tripinfo id="flow5.6" depart="66.00" departLane="1_0" departPos="5.10" departSpeed="0.00" departDelay="1.91" arrival="112.00" arrivalLane="3_0" arrivalPos="239.09" arrivalSpeed="32.84" duration="46.00" routeLength="482.91" waitingTime="10.00" waitingCount="1" stopTime="0.00" timeLoss="33.81" rerouteNo="0" devices="tripinfo_flow5.6" vType="DEFAULT_VEHTYPE" speedFactor="1.02" vaporized=""/>
    <tripinfo id="flow5.7" depart="74.00" departLane="1_0" departPos="5.10" departSpeed="0.00" departDelay="-0.77" arrival="113.00" arrivalLane="3_0" arrivalPos="239.09" arrivalSpeed="33.06" duration="39.00" routeLength="482.91" waitingTime="3.00" waitingCount="1" stopTime="0.00" timeLoss="27.23" rerouteNo="0" devices="tripinfo_flow5.7" vType="DEFAULT_VEHTYPE" speedFactor="1.03" vaporized=""/>
    <tripinfo id="flow5.8" depart="85.00" departLane="1_0" departPos="5.10" departSpeed="0.00" departDelay="-0.46" arrival="115.00" arrivalLane="3_0" arrivalPos="239.09" arrivalSpeed="32.14" duration="30.00" routeLength="482.91" waitingTime="0.00" waitingCount="0" stopTime="0.00" timeLoss="14.85" rerouteNo="0" devices="tripinfo_flow5.8" vType="DEFAULT_VEHTYPE" speedFactor="0.83" vaporized=""/>
    <tripinfo id="flow2.2" depart="9.00" departLane="15_0" departPos="5.10" departSpeed="0.00" departDelay="3.56" arrival="121.00" arrivalLane="9_1" arrivalPos="151.66" arrivalSpeed="35.06" duration="112.00" routeLength="578.86" waitingTime="67.00" waitingCount="3" stopTime="0.00" timeLoss="96.12" rerouteNo="0" devices="tripinfo_flow2.2" vType="DEFAULT_VEHTYPE" speedFactor="1.12" vaporized=""/>
    <tripinfo id="flow1.3" depart="12.00" departLane="10_0" departPos="5.10" departSpeed="0.00" departDelay="3.84" arrival="121.00" arrivalLane="5_1" arrivalPos="241.33" arrivalSpeed="29.59" duration="109.00" routeLength="566.36" waitingTime="66.00" waitingCount="2" stopTime="0.00" timeLoss="94.59" rerouteNo="0" devices="tripinfo_flow1.3" vType="DEFAULT_VEHTYPE" speedFactor="0.99" vaporized=""/>
    <tripinfo id="flow1.2" depart="9.00" departLane="10_0" departPos="5.10" departSpeed="0.00" departDelay="3.56" arrival="122.00" arrivalLane="5_0" arrivalPos="241.33" arrivalSpeed="28.75" duration="113.00" routeLength="566.36" waitingTime="69.00" waitingCount="2" stopTime="0.00" timeLoss="99.06" rerouteNo="0" devices="tripinfo_flow1.2" vType="DEFAULT_VEHTYPE" speedFactor="1.05" vaporized=""/>
    <tripinfo id="flow2.3" depart="12.00" departLane="15_0" departPos="5.10" departSpeed="0.00" departDelay="3.84" arrival="122.00" arrivalLane="9_0" arrivalPos="151.66" arrivalSpeed="35.64" duration="110.00" routeLength="578.86" waitingTime="64.00" waitingCount="2" stopTime="0.00" timeLoss="90.58" rerouteNo="0" devices="tripinfo_flow2.3" vType="DEFAULT_VEHTYPE" speedFactor="0.93" vaporized=""/>
    <tripinfo id="flow4.1" depart="36.00" departLane="15_0" departPos="5.10" departSpeed="0.00" departDelay="7.87" arrival="137.00" arrivalLane="3_0" arrivalPos="239.09" arrivalSpeed="31.34" duration="101.00" routeLength="509.28" waitingTime="51.00" waitingCount="2" stopTime="0.00" timeLoss="83.82" rerouteNo="0" devices="tripinfo_flow4.1" vType="DEFAULT_VEHTYPE" speedFactor="0.99" vaporized=""/>
    <tripinfo id="flow3.2" depart="69.00" departLane="10_0" departPos="5.10" departSpeed="0.00" departDelay="12.31" arrival="138.00" arrivalLane="2_0" arrivalPos="219.91" arrivalSpeed="31.14" duration="69.00" routeLength="548.96" waitingTime="31.00" waitingCount="1" stopTime="0.00" timeLoss="53.01" rerouteNo="0" devices="tripinfo_flow3.2" vType="DEFAULT_VEHTYPE" speedFactor="0.99" vaporized=""/>
    <tripinfo id="flow9.1" depart="91.00" departLane="4_0" departPos="5.10" departSpeed="0.00" departDelay="5.29" arrival="157.00" arrivalLane="5_0" arrivalPos="241.33" arrivalSpeed="28.06" duration="66.00" routeLength="486.65" waitingTime="28.00" waitingCount="1" stopTime="0.00" timeLoss="50.86" rerouteNo="0" devices="tripinfo_flow9.1" vType="DEFAULT_VEHTYPE" speedFactor="0.91" vaporized=""/>
    <tripinfo id="flow10.1" depart="88.00" departLane="4_0" departPos="5.10" departSpeed="0.00" departDelay="2.29" arrival="159.00" arrivalLane="9_0" arrivalPos="151.66" arrivalSpeed="36.33" duration="71.00" routeLength="572.25" waitingTime="33.00" waitingCount="1" stopTime="0.00" timeLoss="56.17" rerouteNo="0" devices="tripinfo_flow10.1" vType="DEFAULT_VEHTYPE" speedFactor="1.09" vaporized=""/>
    <tripinfo id="flow6.1" depart="88.00" departLane="1_0" departPos="5.10" departSpeed="0.00" departDelay="2.29" arrival="161.00" arrivalLane="5_0" arrivalPos="241.33" arrivalSpeed="32.40" duration="73.00" routeLength="482.55" waitingTime="35.00" waitingCount="2" stopTime="0.00" timeLoss="59.49" rerouteNo="0" devices="tripinfo_flow6.1" vType="DEFAULT_VEHTYPE" speedFactor="1.06" vaporized=""/>
    <tripinfo id="flow5.9" depart="96.00" departLane="1_0" departPos="5.10" departSpeed="0.00" departDelay="-0.14" arrival="164.00" arrivalLane="3_0" arrivalPos="239.09" arrivalSpeed="33.24" duration="68.00" routeLength="482.91" waitingTime="29.00" waitingCount="2" stopTime="0.00" timeLoss="55.76" rerouteNo="0" devices="tripinfo_flow5.9" vType="DEFAULT_VEHTYPE" speedFactor="1.01" vaporized=""/>
    <tripinfo id="flow7.1" depart="91.00" departLane="1_0" departPos="5.10" departSpeed="0.00" departDelay="5.29" arrival="165.00" arrivalLane="9_0" arrivalPos="151.66" arrivalSpeed="35.61" duration="74.00" routeLength="538.42" waitingTime="32.00" waitingCount="2" stopTime="0.00" timeLoss="58.85" rerouteNo="0" devices="tripinfo_flow7.1" vType="DEFAULT_VEHTYPE" speedFactor="1.01" vaporized=""/>
    <tripinfo id="flow8.9" depart="96.00" departLane="4_0" departPos="5.10" departSpeed="0.00" departDelay="-0.43" arrival="165.00" arrivalLane="2_0" arrivalPos="219.91" arrivalSpeed="30.56" duration="69.00" routeLength="483.08" waitingTime="29.00" waitingCount="2" stopTime="0.00" timeLoss="57.14" rerouteNo="0" devices="tripinfo_flow8.9" vType="DEFAULT_VEHTYPE" speedFactor="1.03" vaporized=""/>
    <tripinfo id="flow5.10" depart="110.00" departLane="1_0" departPos="5.10" departSpeed="0.00" departDelay="3.18" arrival="166.00" arrivalLane="3_0" arrivalPos="239.09" arrivalSpeed="33.60" duration="56.00" routeLength="482.91" waitingTime="18.00" waitingCount="2" stopTime="0.00" timeLoss="45.23" rerouteNo="0" devices="tripinfo_flow5.10" vType="DEFAULT_VEHTYPE" speedFactor="1.18" vaporized=""/>
    <tripinfo id="flow8.10" depart="107.00" departLane="4_0" departPos="5.10" departSpeed="0.00" departDelay="-0.14" arrival="167.00" arrivalLane="2_0" arrivalPos="219.91" arrivalSpeed="32.27" duration="60.00" routeLength="483.08" waitingTime="18.00" waitingCount="2" stopTime="0.00" timeLoss="47.42" rerouteNo="0" devices="tripinfo_flow8.10" vType="DEFAULT_VEHTYPE" speedFactor="1.00" vaporized=""/>
    <tripinfo id="flow5.11" depart="117.00" departLane="1_0" departPos="5.10" departSpeed="0.00" departDelay="-0.50" arrival="167.00" arrivalLane="3_0" arrivalPos="239.09" arrivalSpeed="32.78" duration="50.00" routeLength="482.91" waitingTime="10.00" waitingCount="2" stopTime="0.00" timeLoss="39.03" rerouteNo="0" devices="tripinfo_flow5.11" vType="DEFAULT_VEHTYPE" speedFactor="1.12" vaporized=""/>
    <tripinfo id="flow1.4" depart="15.00" departLane="10_0" departPos="5.10" departSpeed="0.00" departDelay="4.12" arrival="173.00" arrivalLane="5_0" arrivalPos="241.33" arrivalSpeed="30.73" duration="158.00" routeLength="566.36" waitingTime="107.00" waitingCount="3" stopTime="0.00" timeLoss="142.63" rerouteNo="0" devices="tripinfo_flow1.4" vType="DEFAULT_VEHTYPE" speedFactor="0.94" vaporized=""/>
    <tripinfo id="flow2.4" depart="15.00" departLane="15_0" departPos="5.10" departSpeed="0.00" departDelay="4.12" arrival="173.00" arrivalLane="9_1" arrivalPos="151.66" arrivalSpeed="37.03" duration="158.00" routeLength="578.86" waitingTime="110.00" waitingCount="3" stopTime="0.00" timeLoss="142.45" rerouteNo="0" devices="tripinfo_flow2.4" vType="DEFAULT_VEHTYPE" speedFactor="1.16" vaporized=""/>
    <tripinfo id="flow1.6" depart="21.00" departLane="10_0" departPos="5.10" departSpeed="0.00" departDelay="4.69" arrival="173.00" arrivalLane="5_1" arrivalPos="241.33" arrivalSpeed="32.30" duration="152.00" routeLength="566.36" waitingTime="103.00" waitingCount="3" stopTime="0.00" timeLoss="136.70" rerouteNo="0" devices="tripinfo_flow1.6" vType="DEFAULT_VEHTYPE" speedFactor="0.98" vaporized=""/>
    <tripinfo id="flow2.7" depart="24.00" departLane="15_0" departPos="5.10" departSpeed="0.00" departDelay="4.97" arrival="174.00" arrivalLane="9_0" arrivalPos="151.66" arrivalSpeed="34.16" duration="150.00" routeLength="578.86" waitingTime="97.00" waitingCount="3" stopTime="0.00" timeLoss="128.84" rerouteNo="0" devices="tripinfo_flow2.7" vType="DEFAULT_VEHTYPE" speedFactor="0.87" vaporized=""/>
    <tripinfo id="flow3.3" depart="105.00" departLane="10_0" departPos="5.10" departSpeed="0.00" departDelay="19.96" arrival="189.00" arrivalLane="2_0" arrivalPos="219.91" arrivalSpeed="30.07" duration="84.00" routeLength="548.96" waitingTime="46.00" waitingCount="1" stopTime="0.00" timeLoss="66.79" rerouteNo="0" devices="tripinfo_flow3.3" vType="DEFAULT_VEHTYPE" speedFactor="0.89" vaporized=""/>
    <tripinfo id="flow8.11" depart="117.00" departLane="4_0" departPos="5.10" departSpeed="0.00" departDelay="-0.85" arrival="207.00" arrivalLane="2_0" arrivalPos="219.91" arrivalSpeed="31.35" duration="90.00" routeLength="483.08" waitingTime="45.00" waitingCount="3" stopTime="0.00" timeLoss="77.64" rerouteNo="0" devices="tripinfo_flow8.11" vType="DEFAULT_VEHTYPE" speedFactor="1.01" vaporized=""/>
    <tripinfo id="flow5.12" depart="128.00" departLane="1_0" departPos="5.10" departSpeed="0.00" departDelay="-0.18" arrival="208.00" arrivalLane="3_0" arrivalPos="239.09" arrivalSpeed="34.10" duration="80.00" routeLength="482.91" waitingTime="33.00" waitingCount="1" stopTime="0.00" timeLoss="67.32" rerouteNo="0" devices="tripinfo_flow5.12" vType="DEFAULT_VEHTYPE" speedFactor="1.00" vaporized=""/>
    <tripinfo id="flow8.12" depart="128.00" departLane="4_0" departPos="5.10" departSpeed="0.00" departDelay="-0.57" arrival="209.00" arrivalLane="2_0" arrivalPos="219.91" arrivalSpeed="29.19" duration="81.00" routeLength="483.08" waitingTime="36.00" waitingCount="2" stopTime="0.00" timeLoss="67.85" rerouteNo="0" devices="tripinfo_flow8.12" vType="DEFAULT_VEHTYPE" speedFactor="0.95" vaporized=""/>
    <tripinfo id="flow5.13" depart="138.00" departLane="1_0" departPos="5.10" departSpeed="0.00" departDelay="-0.87" arrival="209.00" arrivalLane="3_0" arrivalPos="239.09" arrivalSpeed="31.08" duration="71.00" routeLength="482.91" waitingTime="32.00" waitingCount="1" stopTime="0.00" timeLoss="58.36" rerouteNo="0" devices="tripinfo_flow5.13" vType="DEFAULT_VEHTYPE" speedFactor="0.97" vaporized=""/>
    <tripinfo id="flow8.13" depart="139.00" departLane="4_0" departPos="5.10" departSpeed="0.00" departDelay="-0.28" arrival="210.00" arrivalLane="2_0" arrivalPos="219.91" arrivalSpeed="29.72" duration="71.00" routeLength="483.08" waitingTime="35.00" waitingCount="1" stopTime="0.00" timeLoss="59.21" rerouteNo="0" devices="tripinfo_flow8.13" vType="DEFAULT_VEHTYPE" speedFactor="1.04" vaporized=""/>
    <tripinfo id="flow5.14" depart="149.00" departLane="1_0" departPos="5.10" departSpeed="0.00" departDelay="-0.55" arrival="211.00" arrivalLane="3_0" arrivalPos="239.09" arrivalSpeed="34.12" duration="62.00" routeLength="482.91" waitingTime="25.00" waitingCount="1" stopTime="0.00" timeLoss="47.46" rerouteNo="0" devices="tripinfo_flow5.14" vType="DEFAULT_VEHTYPE" speedFactor="0.88" vaporized=""/>
    <tripinfo id="flow8.14" depart="150.00" departLane="4_0" departPos="5.10" departSpeed="0.00" departDelay="0.00" arrival="212.00" arrivalLane="2_0" arrivalPos="219.91" arrivalSpeed="32.62" duration="62.00" routeLength="483.08" waitingTime="27.00" waitingCount="1" stopTime="0.00" timeLoss="50.51" rerouteNo="0" devices="tripinfo_flow8.14" vType="DEFAULT_VEHTYPE" speedFactor="1.08" vaporized=""/>
    <tripinfo id="flow5.15" depart="160.00" departLane="1_0" departPos="5.10" departSpeed="0.00" departDelay="-0.23" arrival="212.00" arrivalLane="3_0" arrivalPos="239.09" arrivalSpeed="33.01" duration="52.00" routeLength="482.91" waitingTime="18.00" waitingCount="1" stopTime="0.00" timeLoss="39.70" rerouteNo="0" devices="tripinfo_flow5.15" vType="DEFAULT_VEHTYPE" speedFactor="0.98" vaporized=""/>
    <tripinfo id="flow8.15" depart="160.00" departLane="4_0" departPos="5.10" departSpeed="0.00" departDelay="-0.71" arrival="214.00" arrivalLane="2_0" arrivalPos="219.91" arrivalSpeed="32.91" duration="54.00" routeLength="483.08" waitingTime="17.00" waitingCount="1" stopTime="0.00" timeLoss="39.77" rerouteNo="0" devices="tripinfo_flow8.15" vType="DEFAULT_VEHTYPE" speedFactor="0.90" vaporized=""/>
    <tripinfo id="flow5.16" depart="170.00" departLane="1_0" departPos="5.10" departSpeed="0.00" departDelay="-0.91" arrival="214.00" arrivalLane="3_0" arrivalPos="239.09" arrivalSpeed="34.69" duration="44.00" routeLength="482.91" waitingTime="8.00" waitingCount="1" stopTime="0.00" timeLoss="32.46" rerouteNo="0" devices="tripinfo_flow5.16" vType="DEFAULT_VEHTYPE" speedFactor="1.10" vaporized=""/>
    <tripinfo id="flow8.16" depart="171.00" departLane="4_0" departPos="5.10" departSpeed="0.00" departDelay="-0.42" arrival="215.00" arrivalLane="2_0" arrivalPos="219.91" arrivalSpeed="31.28" duration="44.00" routeLength="483.08" waitingTime="7.00" waitingCount="1" stopTime="0.00" timeLoss="32.60" rerouteNo="0" devices="tripinfo_flow8.16" vType="DEFAULT_VEHTYPE" speedFactor="1.08" vaporized=""/>
    <tripinfo id="flow9.2" depart="177.00" departLane="4_0" departPos="5.10" departSpeed="0.00" departDelay="5.57" arrival="221.00" arrivalLane="5_0" arrivalPos="241.33" arrivalSpeed="31.47" duration="44.00" routeLength="486.65" waitingTime="1.00" waitingCount="1" stopTime="0.00" timeLoss="28.20" rerouteNo="0" devices="tripinfo_flow9.2" vType="DEFAULT_VEHTYPE" speedFactor="0.89" vaporized=""/>
    <tripinfo id="flow1.5" depart="18.00" departLane="10_0" departPos="5.10" departSpeed="0.00" departDelay="4.40" arrival="223.00" arrivalLane="5_0" arrivalPos="241.33" arrivalSpeed="31.47" duration="205.00" routeLength="566.36" waitingTime="150.00" waitingCount="4" stopTime="0.00" timeLoss="191.01" rerouteNo="0" devices="tripinfo_flow1.5" vType="DEFAULT_VEHTYPE" speedFactor="1.02" vaporized=""/>
    <tripinfo id="flow1.8" depart="27.00" departLane="10_0" departPos="5.10" departSpeed="0.00" departDelay="5.25" arrival="223.00" arrivalLane="5_1" arrivalPos="241.33" arrivalSpeed="33.06" duration="196.00" routeLength="566.36" waitingTime="143.00" waitingCount="4" stopTime="0.00" timeLoss="183.13" rerouteNo="0" devices="tripinfo_flow1.8" vType="DEFAULT_VEHTYPE" speedFactor="1.13" vaporized=""/>
    <tripinfo id="flow10.2" depart="174.00" departLane="4_0" departPos="5.10" departSpeed="0.00" departDelay="2.57" arrival="224.00" arrivalLane="9_0" arrivalPos="151.66" arrivalSpeed="35.07" duration="50.00" routeLength="572.25" waitingTime="12.00" waitingCount="1" stopTime="0.00" timeLoss="32.58" rerouteNo="0" devices="tripinfo_flow10.2" vType="DEFAULT_VEHTYPE" speedFactor="0.94" vaporized=""/>
    <tripinfo id="flow2.5" depart="18.00" departLane="15_0" departPos="5.10" departSpeed="0.00" departDelay="4.40" arrival="225.00" arrivalLane="9_1" arrivalPos="151.66" arrivalSpeed="36.44" duration="207.00" routeLength="578.86" waitingTime="152.00" waitingCount="4" stopTime="0.00" timeLoss="189.06" rerouteNo="0" devices="tripinfo_flow2.5" vType="DEFAULT_VEHTYPE" speedFactor="1.01" vaporized=""/>
    <tripinfo id="flow2.6" depart="21.00" departLane="15_0" departPos="5.10" departSpeed="0.00" departDelay="4.69" arrival="226.00" arrivalLane="9_0" arrivalPos="151.66" arrivalSpeed="35.55" duration="205.00" routeLength="578.86" waitingTime="147.00" waitingCount="5" stopTime="0.00" timeLoss="183.85" rerouteNo="0" devices="tripinfo_flow2.6" vType="DEFAULT_VEHTYPE" speedFactor="0.89" vaporized=""/>
    <tripinfo id="flow3.4" depart="138.00" departLane="10_0" departPos="5.10" departSpeed="0.00" departDelay="24.62" arrival="242.00" arrivalLane="2_0" arrivalPos="219.91" arrivalSpeed="31.18" duration="104.00" routeLength="548.96" waitingTime="63.00" waitingCount="2" stopTime="0.00" timeLoss="88.44" rerouteNo="0" devices="tripinfo_flow3.4" vType="DEFAULT_VEHTYPE" speedFactor="1.02" vaporized=""/>
    <tripinfo id="flow6.2" depart="173.00" departLane="1_0" departPos="5.10" departSpeed="0.00" departDelay="1.57" arrival="261.00" arrivalLane="5_0" arrivalPos="241.33" arrivalSpeed="34.37" duration="88.00" routeLength="482.55" waitingTime="43.00" waitingCount="2" stopTime="0.00" timeLoss="72.15" rerouteNo="0" devices="tripinfo_flow6.2" vType="DEFAULT_VEHTYPE" speedFactor="0.92" vaporized=""/>
    <tripinfo id="flow5.17" depart="181.00" departLane="1_0" departPos="5.10" departSpeed="0.00" departDelay="-0.59" arrival="263.00" arrivalLane="3_0" arrivalPos="239.09" arrivalSpeed="34.04" duration="82.00" routeLength="482.91" waitingTime="36.00" waitingCount="2" stopTime="0.00" timeLoss="69.16" rerouteNo="0" devices="tripinfo_flow5.17" vType="DEFAULT_VEHTYPE" speedFactor="1.00" vaporized=""/>
    <tripinfo id="flow7.2" depart="176.00" departLane="1_0" departPos="5.10" departSpeed="0.00" departDelay="4.57" arrival="264.00" arrivalLane="9_0" arrivalPos="151.66" arrivalSpeed="36.38" duration="88.00" routeLength="538.42" waitingTime="41.00" waitingCount="2" stopTime="0.00" timeLoss="73.98" rerouteNo="0" devices="tripinfo_flow7.2" vType="DEFAULT_VEHTYPE" speedFactor="1.08" vaporized=""/>
    <tripinfo id="flow8.17" depart="182.00" departLane="4_0" departPos="5.10" departSpeed="0.00" departDelay="-0.14" arrival="265.00" arrivalLane="2_0" arrivalPos="219.91" arrivalSpeed="31.18" duration="83.00" routeLength="483.08" waitingTime="37.00" waitingCount="2" stopTime="0.00" timeLoss="68.15" rerouteNo="0" devices="tripinfo_flow8.17" vType="DEFAULT_VEHTYPE" speedFactor="0.84" vaporized=""/>