<?xml version="1.0" encoding="UTF-8"?>

<!-- generated on 04/05/20 20:14:22 by Eclipse SUMO Version 1.4.0
<configuration xmlns:xsi="http://www.w3.org/2001/XMLSchema-instance" xsi:noNamespaceSchemaLocation="http://sumo.dlr.de/xsd/sumoConfiguration.xsd">

    <input>
        <net-file value="d:\GitHub\ly_schoolhelper\路网提升\人工交互_1.27/gnet.net.xml"/>
        <route-files value="d:\GitHub\ly_schoolhelper\路网提升\人工交互_1.27/grou.rou.xml"/>
        <additional-files value="d:\GitHub\ly_schoolhelper\路网提升\人工交互_1.27/gadd.additional.xml"/>
    </input>

    <output>
        <queue-output value="d:\GitHub\ly_schoolhelper\路网提升\人工交互_1.27/Queue.xml"/>
        <summary-output value="d:\GitHub\ly_schoolhelper\路网提升\人工交互_1.27/Summary.xml"/>
        <tripinfo-output value="d:\GitHub\ly_schoolhelper\路网提升\人工交互_1.27/output-tripinfos.xml"/>
    </output>

    <time>
        <begin value="0"/>
        <end value="3600"/>
    </time>

    <processing>
        <time-to-teleport value="3600"/>
    </processing>

    <traci_server>
        <remote-port value="63945"/>
    </traci_server>

    <gui_only>
        <gui-settings-file value="d:\GitHub\ly_schoolhelper\路网提升\人工交互_1.27/gview.view.xml"/>
        <quit-on-end value="true"/>
        <start value="true"/>
    </gui_only>

</configuration>
-->

<queue-export xmlns:xsi="http://www.w3.org/2001/XMLSchema-instance" xsi:noNamespaceSchemaLocation="http://sumo.dlr.de/xsd/queue_file.xsd">
    <data timestep="0.00">
        <lanes/>
    </data>
    <data timestep="1.00">
        <lanes/>
    </data>
    <data timestep="2.00">
        <lanes/>
    </data>
    <data timestep="3.00">
        <lanes/>
    </data>
    <data timestep="4.00">
        <lanes/>
    </data>
    <data timestep="5.00">
        <lanes/>
    </data>
    <data timestep="6.00">
        <lanes/>
    </data>
    <data timestep="7.00">
        <lanes/>
    </data>
    <data timestep="8.00">
        <lanes/>
    </data>
    <data timestep="9.00">
        <lanes/>
    </data>
    <data timestep="10.00">
        <lanes/>
    </data>
    <data timestep="11.00">
        <lanes/>
    </data>
    <data timestep="12.00">
        <lanes/>
    </data>
    <data timestep="13.00">
        <lanes/>
    </data>
    <data timestep="14.00">
        <lanes/>
    </data>
    <data timestep="15.00">
        <lanes/>
    </data>
    <data timestep="16.00">
        <lanes/>
    </data>
    <data timestep="17.00">
        <lanes/>
    </data>
    <data timestep="18.00">
        <lanes>
            <lane id="1_0" queueing_time="0.00" queueing_length="0.00" queueing_length_experimental="6.08"/>
            <lane id="4_1" queueing_time="1.00" queueing_length="6.01" queueing_length_experimental="6.01"/>
        </lanes>
    </data>
    <data timestep="19.00">
        <lanes>
            <lane id="1_0" queueing_time="1.00" queueing_length="6.03" queueing_length_experimental="6.03"/>
            <lane id="4_1" queueing_time="2.00" queueing_length="6.00" queueing_length_experimental="6.00"/>
        </lanes>
    </data>
    <data timestep="20.00">
        <lanes>
            <lane id="1_0" queueing_time="2.00" queueing_length="6.01" queueing_length_experimental="6.01"/>
            <lane id="4_1" queueing_time="3.00" queueing_length="6.00" queueing_length_experimental="6.00"/>
        </lanes>
    </data>
    <data timestep="21.00">
        <lanes>
            <lane id="1_0" queueing_time="3.00" queueing_length="6.00" queueing_length_experimental="13.96"/>
            <lane id="4_1" queueing_time="4.00" queueing_length="6.00" queueing_length_experimental="6.00"/>
            <lane id="6_1" queueing_time="1.00" queueing_length="6.04" queueing_length_experimental="6.04"/>
        </lanes>
    </data>
    <data timestep="22.00">
        <lanes>
            <lane id="1_0" queueing_time="4.00" queueing_length="6.00" queueing_length_experimental="13.56"/>
            <lane id="4_0" queueing_time="0.00" queueing_length="0.00" queueing_length_experimental="6.08"/>
            <lane id="4_1" queueing_time="5.00" queueing_length="6.00" queueing_length_experimental="6.00"/>
            <lane id="6_1" queueing_time="2.00" queueing_length="6.01" queueing_length_experimental="6.01"/>
            <lane id="8_0" queueing_time="0.00" queueing_length="0.00" queueing_length_experimental="6.02"/>
        </lanes>
    </data>
    <data timestep="23.00">
        <lanes>
            <lane id="1_0" queueing_time="5.00" queueing_length="13.51" queueing_length_experimental="13.51"/>
            <lane id="4_0" queueing_time="1.00" queueing_length="6.02" queueing_length_experimental="6.02"/>
            <lane id="4_1" queueing_time="6.00" queueing_length="6.00" queueing_length_experimental="6.00"/>
            <lane id="6_1" queueing_time="3.00" queueing_length="6.00" queueing_length_experimental="6.00"/>
            <lane id="8_0" queueing_time="1.00" queueing_length="6.00" queueing_length_experimental="6.00"/>
        </lanes>
    </data>
    <data timestep="24.00">
        <lanes>
            <lane id="1_0" queueing_time="6.00" queueing_length="13.50" queueing_length_experimental="13.50"/>
            <lane id="4_0" queueing_time="2.00" queueing_length="6.01" queueing_length_experimental="13.93"/>
            <lane id="4_1" queueing_time="7.00" queueing_length="6.00" queueing_length_experimental="6.00"/>
            <lane id="6_1" queueing_time="4.00" queueing_length="6.00" queueing_length_experimental="6.00"/>
            <lane id="6_3" queueing_time="0.00" queueing_length="0.00" queueing_length_experimental="6.27"/>
            <lane id="8_0" queueing_time="2.00" queueing_length="6.00" queueing_length_experimental="6.00"/>
        </lanes>
    </data>
    <data timestep="25.00">
        <lanes>
            <lane id="1_0" queueing_time="7.00" queueing_length="13.50" queueing_length_experimental="21.04"/>
            <lane id="4_0" queueing_time="3.00" queueing_length="6.00" queueing_length_experimental="13.69"/>
            <lane id="4_1" queueing_time="8.00" queueing_length="6.00" queueing_length_experimental="6.00"/>
            <lane id="6_1" queueing_time="5.00" queueing_length="6.00" queueing_length_experimental="6.00"/>
            <lane id="6_3" queueing_time="0.00" queueing_length="0.00" queueing_length_experimental="6.04"/>
            <lane id="8_0" queueing_time="3.00" queueing_length="6.00" queueing_length_experimental="6.00"/>
        </lanes>
    </data>
    <data timestep="26.00">
        <lanes>
            <lane id="1_0" queueing_time="8.00" queueing_length="21.00" queueing_length_experimental="21.00"/>
            <lane id="4_0" queueing_time="4.00" queueing_length="6.00" queueing_length_experimental="13.55"/>
            <lane id="4_1" queueing_time="9.00" queueing_length="6.00" queueing_length_experimental="6.00"/>
            <lane id="6_1" queueing_time="6.00" queueing_length="6.00" queueing_length_experimental="6.00"/>
            <lane id="6_3" queueing_time="1.00" queueing_length="6.01" queueing_length_experimental="6.01"/>
            <lane id="8_0" queueing_time="4.00" queueing_length="6.00" queueing_length_experimental="6.00"/>
        </lanes>
    </data>
    <data timestep="27.00">
        <lanes>
            <lane id="1_0" queueing_time="9.00" queueing_length="21.00" queueing_length_experimental="28.62"/>
            <lane id="4_0" queueing_time="5.00" queueing_length="13.50" queueing_length_experimental="13.50"/>
            <lane id="4_1" queueing_time="10.00" queueing_length="6.00" queueing_length_experimental="6.00"/>
            <lane id="6_1" queueing_time="7.00" queueing_length="6.00" queueing_length_experimental="6.00"/>
            <lane id="6_2" queueing_time="0.00" queueing_length="0.00" queueing_length_experimental="6.25"/>
            <lane id="6_3" queueing_time="2.00" queueing_length="6.00" queueing_length_experimental="6.00"/>
            <lane id="8_0" queueing_time="5.00" queueing_length="6.00" queueing_length_experimental="6.00"/>
            <lane id="8_1" queueing_time="0.00" queueing_length="0.00" queueing_length_experimental="6.06"/>
        </lanes>
    </data>
    <data timestep="28.00">
        <lanes>
            <lane id="1_0" queueing_time="10.00" queueing_length="28.55" queueing_length_experimental="28.55"/>
            <lane id="4_0" queueing_time="6.00" queueing_length="13.50" queueing_length_experimental="21.21"/>
            <lane id="4_1" queueing_time="11.00" queueing_length="6.00" queueing_length_experimental="6.00"/>
            <lane id="6_1" queueing_time="8.00" queueing_length="6.00" queueing_length_experimental="6.00"/>
            <lane id="6_2" queueing_time="0.00" queueing_length="0.00" queueing_length_experimental="6.09"/>
            <lane id="6_3" queueing_time="3.00" queueing_length="6.00" queueing_length_experimental="6.00"/>
            <lane id="8_0" queueing_time="6.00" queueing_length="6.00" queueing_length_experimental="6.00"/>
            <lane id="8_1" queueing_time="1.00" queueing_length="6.01" queueing_length_experimental="6.01"/>
        </lanes>
    </data>
    <data timestep="29.00">
        <lanes>
            <lane id="1_0" queueing_time="11.00" queueing_length="28.53" queueing_length_experimental="28.53"/>
            <lane id="4_0" queueing_time="7.00" queueing_length="13.50" queueing_length_experimental="21.05"/>
            <lane id="4_1" queueing_time="12.00" queueing_length="6.00" queueing_length_experimental="6.00"/>
            <lane id="6_1" queueing_time="9.00" queueing_length="6.00" queueing_length_experimental="6.00"/>
            <lane id="6_2" queueing_time="1.00" queueing_length="6.01" queueing_length_experimental="6.01"/>
            <lane id="6_3" queueing_time="4.00" queueing_length="6.00" queueing_length_experimental="6.00"/>
            <lane id="8_0" queueing_time="7.00" queueing_length="6.00" queueing_length_experimental="6.00"/>
            <lane id="8_1" queueing_time="2.00" queueing_length="6.01" queueing_length_experimental="6.01"/>
        </lanes>
    </data>
    <data timestep="30.00">
        <lanes>
            <lane id="1_0" queueing_time="12.00" queueing_length="28.51" queueing_length_experimental="28.51"/>
            <lane id="4_0" queueing_time="8.00" queueing_length="21.02" queueing_length_experimental="21.02"/>
            <lane id="4_1" queueing_time="13.00" queueing_length="6.00" queueing_length_experimental="6.00"/>
            <lane id="6_1" queueing_time="10.00" queueing_length="6.00" queueing_length_experimental="6.00"/>
            <lane id="6_2" queueing_time="2.00" queueing_length="6.01" queueing_length_experimental="13.57"/>
            <lane id="6_3" queueing_time="5.00" queueing_length="6.00" queueing_length_experimental="6.00"/>
            <lane id="8_0" queueing_time="8.00" queueing_length="6.00" queueing_length_experimental="13.51"/>
            <lane id="8_1" queueing_time="3.00" queueing_length="6.00" queueing_length_experimental="6.00"/>
        </lanes>
    </data>
    <data timestep="31.00">
        <lanes>
            <lane id="1_0" queueing_time="13.00" queueing_length="28.51" queueing_length_experimental="28.51"/>
            <lane id="4_0" queueing_time="9.00" queueing_length="21.00" queueing_length_experimental="21.00"/>
            <lane id="4_1" queueing_time="14.00" queueing_length="6.00" queueing_length_experimental="6.00"/>
            <lane id="6_1" queueing_time="11.00" queueing_length="6.00" queueing_length_experimental="6.00"/>
            <lane id="6_2" queueing_time="3.00" queueing_length="13.51" queueing_length_experimental="13.51"/>
            <lane id="6_3" queueing_time="6.00" queueing_length="6.00" queueing_length_experimental="6.00"/>
            <lane id="8_0" queueing_time="9.00" queueing_length="13.50" queueing_length_experimental="13.50"/>
            <lane id="8_1" queueing_time="4.00" queueing_length="6.00" queueing_length_experimental="6.00"/>
        </lanes>
    </data>
    <data timestep="32.00">
        <lanes>
            <lane id="1_0" queueing_time="14.00" queueing_length="28.50" queueing_length_experimental="28.50"/>
            <lane id="4_0" queueing_time="10.00" queueing_length="21.00" queueing_length_experimental="21.00"/>
            <lane id="4_1" queueing_time="15.00" queueing_length="6.00" queueing_length_experimental="6.00"/>
            <lane id="6_1" queueing_time="12.00" queueing_length="6.00" queueing_length_experimental="6.00"/>
            <lane id="6_2" queueing_time="4.00" queueing_length="13.51" queueing_length_experimental="13.51"/>
            <lane id="6_3" queueing_time="7.00" queueing_length="6.00" queueing_length_experimental="6.00"/>
            <lane id="8_0" queueing_time="10.00" queueing_length="13.50" queueing_length_experimental="13.50"/>
            <lane id="8_1" queueing_time="5.00" queueing_length="6.00" queueing_length_experimental="6.00"/>
        </lanes>
    </data>
    <data timestep="33.00">
        <lanes>
            <lane id="1_0" queueing_time="15.00" queueing_length="28.50" queueing_length_experimental="28.50"/>
            <lane id="4_0" queueing_time="11.00" queueing_length="21.00" queueing_length_experimental="21.00"/>
            <lane id="4_1" queueing_time="16.00" queueing_length="6.00" queueing_length_experimental="6.00"/>
            <lane id="6_1" queueing_time="13.00" queueing_length="6.00" queueing_length_experimental="13.51"/>
            <lane id="6_2" queueing_time="5.00" queueing_length="13.50" queueing_length_experimental="13.50"/>
            <lane id="6_3" queueing_time="8.00" queueing_length="6.00" queueing_length_experimental="6.00"/>
            <lane id="8_0" queueing_time="11.00" queueing_length="13.50" queueing_length_experimental="13.50"/>
            <lane id="8_1" queueing_time="6.00" queueing_length="6.00" queueing_length_experimental="6.00"/>
        </lanes>
    </data>
    <data timestep="34.00">
        <lanes>
            <lane id="1_0" queueing_time="16.00" queueing_length="28.50" queueing_length_experimental="28.50"/>
            <lane id="4_0" queueing_time="12.00" queueing_length="21.00" queueing_length_experimental="21.00"/>
            <lane id="4_1" queueing_time="17.00" queueing_length="6.00" queueing_length_experimental="6.00"/>
            <lane id="6_1" queueing_time="14.00" queueing_length="13.51" queueing_length_experimental="13.51"/>
            <lane id="6_2" queueing_time="6.00" queueing_length="13.50" queueing_length_experimental="21.16"/>
            <lane id="6_3" queueing_time="9.00" queueing_length="6.00" queueing_length_experimental="6.00"/>
            <lane id="8_0" queueing_time="12.00" queueing_length="13.50" queueing_length_experimental="13.50"/>
            <lane id="8_1" queueing_time="7.00" queueing_length="13.53" queueing_length_experimental="13.53"/>
        </lanes>
    </data>
    <data timestep="35.00">
        <lanes>
            <lane id="1_0" queueing_time="17.00" queueing_length="28.50" queueing_length_experimental="28.50"/>
            <lane id="4_0" queueing_time="13.00" queueing_length="21.00" queueing_length_experimental="21.00"/>
            <lane id="4_1" queueing_time="18.00" queueing_length="6.00" queueing_length_experimental="6.00"/>
            <lane id="6_1" queueing_time="15.00" queueing_length="13.50" queueing_length_experimental="13.50"/>
            <lane id="6_2" queueing_time="7.00" queueing_length="21.08" queueing_length_experimental="21.08"/>
            <lane id="6_3" queueing_time="10.00" queueing_length="6.00" queueing_length_experimental="6.00"/>
            <lane id="8_0" queueing_time="13.00" queueing_length="13.50" queueing_length_experimental="13.50"/>
            <lane id="8_1" queueing_time="8.00" queueing_length="13.50" queueing_length_experimental="13.50"/>
        </lanes>
    </data>
    <data timestep="36.00">
        <lanes>
            <lane id="1_0" queueing_time="14.00" queueing_length="28.50" queueing_length_experimental="28.50"/>
            <lane id="4_0" queueing_time="10.00" queueing_length="21.00" queueing_length_experimental="21.00"/>
            <lane id="6_1" queueing_time="16.00" queueing_length="13.50" queueing_length_experimental="13.50"/>
            <lane id="6_2" queueing_time="8.00" queueing_length="21.03" queueing_length_experimental="28.77"/>
            <lane id="6_3" queueing_time="11.00" queueing_length="6.00" queueing_length_experimental="6.00"/>
            <lane id="8_0" queueing_time="14.00" queueing_length="13.50" queueing_length_experimental="13.50"/>
            <lane id="8_1" queueing_time="9.00" queueing_length="13.50" queueing_length_experimental="13.50"/>
        </lanes>
    </data>
    <data timestep="37.00">
        <lanes>
            <lane id="1_0" queueing_time="12.00" queueing_length="28.50" queueing_length_experimental="28.50"/>
            <lane id="4_0" queueing_time="8.00" queueing_length="21.00" queueing_length_experimental="21.00"/>
            <lane id="6_1" queueing_time="17.00" queueing_length="13.50" queueing_length_experimental="13.50"/>
            <lane id="6_2" queueing_time="9.00" queueing_length="21.01" queueing_length_experimental="28.64"/>
            <lane id="6_3" queueing_time="12.00" queueing_length="6.00" queueing_length_experimental="6.00"/>
            <lane id="8_0" queueing_time="15.00" queueing_length="13.50" queueing_length_experimental="21.03"/>
            <lane id="8_1" queueing_time="10.00" queueing_length="13.50" queueing_length_experimental="13.50"/>
        </lanes>
    </data>
    <data timestep="38.00">
        <lanes>
            <lane id="1_0" queueing_time="11.00" queueing_length="28.50" queueing_length_experimental="36.07"/>
            <lane id="4_0" queueing_time="0.00" queueing_length="0.00" queueing_length_experimental="19.98"/>
            <lane id="6_1" queueing_time="18.00" queueing_length="13.50" queueing_length_experimental="13.50"/>
            <lane id="6_2" queueing_time="10.00" queueing_length="28.56" queueing_length_experimental="28.56"/>
            <lane id="6_3" queueing_time="13.00" queueing_length="6.00" queueing_length_experimental="6.00"/>
            <lane id="8_0" queueing_time="16.00" queueing_length="21.01" queueing_length_experimental="21.01"/>
            <lane id="8_1" queueing_time="11.00" queueing_length="13.50" queueing_length_experimental="13.50"/>
        </lanes>
    </data>
    <data timestep="39.00">
        <lanes>
            <lane id="1_0" queueing_time="1.00" queueing_length="36.02" queueing_length_experimental="36.02"/>
            <lane id="6_1" queueing_time="19.00" queueing_length="13.50" queueing_length_experimental="13.50"/>
            <lane id="6_2" queueing_time="11.00" queueing_length="28.51" queueing_length_experimental="28.51"/>
            <lane id="6_3" queueing_time="14.00" queueing_length="6.00" queueing_length_experimental="6.00"/>
            <lane id="8_0" queueing_time="17.00" queueing_length="21.01" queueing_length_experimental="28.87"/>
            <lane id="8_1" queueing_time="12.00" queueing_length="13.50" queueing_length_experimental="13.50"/>
        </lanes>
    </data>
    <data timestep="40.00">
        <lanes>
            <lane id=":cluster_node2_node2-1_3_0" queueing_time="1.00" queueing_length="5.11" queueing_length_experimental="5.11"/>
            <lane id="1_0" queueing_time="0.00" queueing_length="0.00" queueing_length_experimental="35.69"/>
            <lane id="6_1" queueing_time="20.00" queueing_length="13.50" queueing_length_experimental="13.50"/>
            <lane id="6_2" queueing_time="12.00" queueing_length="36.03" queueing_length_experimental="28.51"/>
            <lane id="6_3" queueing_time="15.00" queueing_length="6.00" queueing_length_experimental="6.00"/>
            <lane id="8_0" queueing_time="18.00" queueing_length="21.00" queueing_length_experimental="28.66"/>
            <lane id="8_1" queueing_time="13.00" queueing_length="13.50" queueing_length_experimental="13.50"/>
        </lanes>
    </data>
    <data timestep="41.00">
        <lanes>
            <lane id=":cluster_node2_node2-1_3_0" queueing_time="2.00" queueing_length="5.10" queueing_length_experimental="5.10"/>
            <lane id="1_0" queueing_time="0.00" queueing_length="0.00" queueing_length_experimental="13.13"/>
            <lane id="6_1" queueing_time="21.00" queueing_length="13.50" queueing_length_experimental="13.50"/>
            <lane id="6_2" queueing_time="13.00" queueing_length="36.01" queueing_length_experimental="28.50"/>
            <lane id="6_3" queueing_time="16.00" queueing_length="6.00" queueing_length_experimental="6.00"/>
            <lane id="8_0" queueing_time="19.00" queueing_length="28.56" queueing_length_experimental="28.56"/>
            <lane id="8_1" queueing_time="14.00" queueing_length="13.50" queueing_length_experimental="13.50"/>
        </lanes>
    </data>
    <data timestep="42.00">
        <lanes>
            <lane id=":cluster_node2_node2-1_3_0" queueing_time="3.00" queueing_length="5.10" queueing_length_experimental="5.10"/>
            <lane id="1_0" queueing_time="1.00" queueing_length="5.10" queueing_length_experimental="20.92"/>
            <lane id="6_1" queueing_time="22.00" queueing_length="36.01" queueing_length_experimental="13.50"/>
            <lane id="6_2" queueing_time="14.00" queueing_length="28.50" queueing_length_experimental="28.50"/>
            <lane id="6_3" queueing_time="17.00" queueing_length="6.00" queueing_length_experimental="6.00"/>
            <lane id="8_0" queueing_time="20.00" queueing_length="28.51" queueing_length_experimental="28.51"/>
            <lane id="8_1" queueing_time="15.00" queueing_length="13.50" queueing_length_experimental="21.08"/>
        </lanes>
    </data>
    <data timestep="43.00">
        <lanes>
            <lane id=":cluster_node2_node2-1_3_0" queueing_time="4.00" queueing_length="5.10" queueing_length_experimental="5.10"/>
            <lane id="1_0" queueing_time="2.00" queueing_length="5.10" queueing_length_experimental="20.44"/>
            <lane id="6_1" queueing_time="23.00" queueing_length="13.50" queueing_length_experimental="13.50"/>
            <lane id="6_2" queueing_time="15.00" queueing_length="28.50" queueing_length_experimental="28.50"/>
            <lane id="6_3" queueing_time="18.00" queueing_length="6.00" queueing_length_experimental="6.00"/>
            <lane id="8_0" queueing_time="21.00" queueing_length="28.50" queueing_length_experimental="28.50"/>
            <lane id="8_1" queueing_time="16.00" queueing_length="21.02" queueing_length_experimental="21.02"/>
        </lanes>
    </data>
    <data timestep="44.00">
        <lanes>
            <lane id=":cluster_node2_node2-1_3_0" queueing_time="5.00" queueing_length="5.10" queueing_length_experimental="5.10"/>
            <lane id="1_0" queueing_time="3.00" queueing_length="12.62" queueing_length_experimental="28.33"/>
            <lane id="6_1" queueing_time="24.00" queueing_length="13.50" queueing_length_experimental="21.33"/>
            <lane id="6_2" queueing_time="16.00" queueing_length="28.50" queueing_length_experimental="28.50"/>
            <lane id="6_3" queueing_time="19.00" queueing_length="6.00" queueing_length_experimental="6.00"/>
            <lane id="8_0" queueing_time="22.00" queueing_length="36.02" queueing_length_experimental="36.02"/>
            <lane id="8_1" queueing_time="17.00" queueing_length="21.01" queueing_length_experimental="21.01"/>
        </lanes>
    </data>
    <data timestep="45.00">
        <lanes>
            <lane id=":cluster_node2_node2-1_3_0" queueing_time="6.00" queueing_length="5.10" queueing_length_experimental="5.10"/>
            <lane id="1_0" queueing_time="4.00" queueing_length="20.14" queueing_length_experimental="27.94"/>
            <lane id="6_1" queueing_time="25.00" queueing_length="13.50" queueing_length_experimental="29.02"/>
            <lane id="6_2" queueing_time="17.00" queueing_length="28.50" queueing_length_experimental="28.50"/>
            <lane id="6_3" queueing_time="20.00" queueing_length="6.00" queueing_length_experimental="6.00"/>
            <lane id="8_0" queueing_time="23.00" queueing_length="36.01" queueing_length_experimental="36.01"/>
            <lane id="8_1" queueing_time="18.00" queueing_length="21.00" queueing_length_experimental="21.00"/>
        </lanes>
    </data>
    <data timestep="46.00">
        <lanes>
            <lane id="1_0" queueing_time="5.00" queueing_length="20.12" queueing_length_experimental="27.77"/>
            <lane id="6_1" queueing_time="26.00" queueing_length="13.50" queueing_length_experimental="28.76"/>
            <lane id="6_2" queueing_time="18.00" queueing_length="28.50" queueing_length_experimental="28.50"/>
            <lane id="6_3" queueing_time="21.00" queueing_length="6.00" queueing_length_experimental="6.00"/>
            <lane id="8_0" queueing_time="24.00" queueing_length="36.01" queueing_length_experimental="36.01"/>
            <lane id="8_1" queueing_time="19.00" queueing_length="21.00" queueing_length_experimental="21.00"/>
        </lanes>
    </data>
    <data timestep="47.00">
        <lanes>
            <lane id="1_0" queueing_time="4.00" queueing_length="27.70" queueing_length_experimental="27.70"/>
            <lane id="6_1" queueing_time="27.00" queueing_length="21.00" queueing_length_experimental="28.58"/>
            <lane id="6_2" queueing_time="19.00" queueing_length="36.02" queueing_length_experimental="28.50"/>
            <lane id="6_3" queueing_time="22.00" queueing_length="6.00" queueing_length_experimental="6.00"/>
            <lane id="8_0" queueing_time="25.00" queueing_length="36.01" queueing_length_experimental="36.01"/>
            <lane id="8_1" queueing_time="20.00" queueing_length="21.00" queueing_length_experimental="21.00"/>
        </lanes>
    </data>
    <data timestep="48.00">
        <lanes>
            <lane id="1_0" queueing_time="4.00" queueing_length="27.63" queueing_length_experimental="27.63"/>
            <lane id="6_1" queueing_time="28.00" queueing_length="28.54" queueing_length_experimental="28.54"/>
            <lane id="6_2" queueing_time="20.00" queueing_length="36.01" queueing_length_experimental="28.50"/>
            <lane id="6_3" queueing_time="23.00" queueing_length="6.00" queueing_length_experimental="6.00"/>
            <lane id="8_0" queueing_time="26.00" queueing_length="36.01" queueing_length_experimental="36.01"/>
            <lane id="8_1" queueing_time="21.00" queueing_length="21.00" queueing_length_experimental="28.56"/>
        </lanes>
    </data>
    <data timestep="49.00">
        <lanes>
            <lane id=":6.-40_0_2" queueing_time="0.00" queueing_length="0.00" queueing_length_experimental="7.65"/>
            <lane id="1_0" queueing_time="3.00" queueing_length="27.62" queueing_length_experimental="27.62"/>
            <lane id="6_1" queueing_time="29.00" queueing_length="28.51" queueing_length_experimental="28.51"/>
            <lane id="6_2" queueing_time="21.00" queueing_length="36.01" queueing_length_experimental="28.50"/>
            <lane id="6_3" queueing_time="24.00" queueing_length="6.00" queueing_length_experimental="6.00"/>
            <lane id="8_0" queueing_time="27.00" queueing_length="36.01" queueing_length_experimental="36.01"/>
            <lane id="8_1" queueing_time="22.00" queueing_length="28.52" queueing_length_experimental="28.52"/>
        </lanes>
    </data>
    <data timestep="50.00">
        <lanes>
            <lane id=":6.-40_0_2" queueing_time="0.00" queueing_length="0.00" queueing_length_experimental="7.53"/>
            <lane id="1_0" queueing_time="0.00" queueing_length="0.00" queueing_length_experimental="27.16"/>
            <lane id="6_1" queueing_time="30.00" queueing_length="28.50" queueing_length_experimental="28.50"/>
            <lane id="6_2" queueing_time="22.00" queueing_length="36.01" queueing_length_experimental="28.50"/>
            <lane id="6_3" queueing_time="25.00" queueing_length="6.00" queueing_length_experimental="6.00"/>
            <lane id="8_0" queueing_time="28.00" queueing_length="36.01" queueing_length_experimental="36.01"/>
            <lane id="8_1" queueing_time="23.00" queueing_length="28.51" queueing_length_experimental="28.51"/>
        </lanes>
    </data>
    <data timestep="51.00">
        <lanes>
            <lane id=":6.-40_0_2" queueing_time="1.00" queueing_length="7.51" queueing_length_experimental="7.51"/>
            <lane id="1_0" queueing_time="0.00" queueing_length="0.00" queueing_length_experimental="34.77"/>
            <lane id="6_1" queueing_time="31.00" queueing_length="28.50" queueing_length_experimental="28.50"/>
            <lane id="6_2" queueing_time="23.00" queueing_length="36.01" queueing_length_experimental="28.50"/>
            <lane id="6_3" queueing_time="26.00" queueing_length="6.00" queueing_length_experimental="6.00"/>
            <lane id="8_0" queueing_time="29.00" queueing_length="36.01" queueing_length_experimental="36.01"/>
            <lane id="8_1" queueing_time="24.00" queueing_length="28.50" queueing_length_experimental="36.09"/>
        </lanes>
    </data>
    <data timestep="52.00">
        <lanes>
            <lane id=":6.-40_0_2" queueing_time="2.00" queueing_length="7.51" queueing_length_experimental="7.51"/>
            <lane id="1_0" queueing_time="0.00" queueing_length="0.00" queueing_length_experimental="33.38"/>
            <lane id="6_1" queueing_time="19.00" queueing_length="28.50" queueing_length_experimental="28.50"/>
            <lane id="6_2" queueing_time="22.00" queueing_length="36.01" queueing_length_experimental="28.50"/>
            <lane id="6_3" queueing_time="27.00" queueing_length="6.00" queueing_length_experimental="6.00"/>
            <lane id="8_0" queueing_time="22.00" queueing_length="36.01" queueing_length_experimental="36.01"/>
            <lane id="8_1" queueing_time="19.00" queueing_length="36.01" queueing_length_experimental="36.01"/>
        </lanes>
    </data>
    <data timestep="53.00">
        <lanes>