<?xml version="1.0" encoding="UTF-8"?>

<!-- generated on 11/04/19 14:53:43 by Eclipse SUMO GUI Version 1.3.1
<configuration xmlns:xsi="http://www.w3.org/2001/XMLSchema-instance" xsi:noNamespaceSchemaLocation="http://sumo.dlr.de/xsd/sumoConfiguration.xsd">

    <input>
        <net-file value="gnet.net.xml"/>
        <route-files value="grou.rou.xml"/>
        <additional-files value="gadd.additional.xml"/>
    </input>

    <output>
        <queue-output value="Queue.xml"/>
        <summary-output value="Summary.xml"/>
    </output>

    <time>
        <begin value="0"/>
        <end value="16000"/>
    </time>

    <processing>
        <time-to-teleport value="16000"/>
    </processing>

    <traci_server>
        <remote-port value="62812"/>
    </traci_server>

    <gui_only>
        <gui-settings-file value="gview.view.xml"/>
        <quit-on-end value="true"/>
        <start value="true"/>
    </gui_only>

</configuration>
-->

<queue-export xmlns:xsi="http://www.w3.org/2001/XMLSchema-instance" xsi:noNamespaceSchemaLocation="http://sumo.dlr.de/xsd/queue_file.xsd">
    <data timestep="0.00">
        <lanes/>
    </data>
    <data timestep="1.00">
        <lanes/>
    </data>
    <data timestep="2.00">
        <lanes/>
    </data>
    <data timestep="3.00">
        <lanes/>
    </data>
    <data timestep="4.00">
        <lanes/>
    </data>
    <data timestep="5.00">
        <lanes/>
    </data>
    <data timestep="6.00">
        <lanes/>
    </data>
    <data timestep="7.00">
        <lanes/>
    </data>
    <data timestep="8.00">
        <lanes/>
    </data>
    <data timestep="9.00">
        <lanes/>
    </data>
    <data timestep="10.00">
        <lanes/>
    </data>
    <data timestep="11.00">
        <lanes/>
    </data>
    <data timestep="12.00">
        <lanes/>
    </data>
    <data timestep="13.00">
        <lanes/>
    </data>
    <data timestep="14.00">
        <lanes/>
    </data>
    <data timestep="15.00">
        <lanes/>
    </data>
    <data timestep="16.00">
        <lanes/>
    </data>
    <data timestep="17.00">
        <lanes>
            <lane id="1_0" queueing_time="0.00" queueing_length="0.00" queueing_length_experimental="6.01"/>
            <lane id="4_0" queueing_time="0.00" queueing_length="0.00" queueing_length_experimental="6.06"/>
        </lanes>
    </data>
    <data timestep="18.00">
        <lanes>
            <lane id="1_0" queueing_time="1.00" queueing_length="6.00" queueing_length_experimental="6.00"/>
            <lane id="4_0" queueing_time="1.00" queueing_length="6.01" queueing_length_experimental="6.01"/>
        </lanes>
    </data>
    <data timestep="19.00">
        <lanes>
            <lane id="1_0" queueing_time="2.00" queueing_length="6.00" queueing_length_experimental="6.00"/>
            <lane id="4_0" queueing_time="2.00" queueing_length="6.01" queueing_length_experimental="6.01"/>
        </lanes>
    </data>
    <data timestep="20.00">
        <lanes>
            <lane id="1_0" queueing_time="3.00" queueing_length="6.00" queueing_length_experimental="6.00"/>
            <lane id="4_0" queueing_time="3.00" queueing_length="6.00" queueing_length_experimental="6.00"/>
        </lanes>
    </data>
    <data timestep="21.00">
        <lanes>
            <lane id="1_0" queueing_time="4.00" queueing_length="6.00" queueing_length_experimental="6.00"/>
            <lane id="4_0" queueing_time="4.00" queueing_length="6.00" queueing_length_experimental="6.00"/>
            <lane id="6_0" queueing_time="0.00" queueing_length="0.00" queueing_length_experimental="6.04"/>
        </lanes>
    </data>
    <data timestep="22.00">
        <lanes>
            <lane id="1_0" queueing_time="5.00" queueing_length="6.00" queueing_length_experimental="6.00"/>
            <lane id="4_0" queueing_time="5.00" queueing_length="6.00" queueing_length_experimental="6.00"/>
            <lane id="6_0" queueing_time="1.00" queueing_length="6.01" queueing_length_experimental="6.01"/>
        </lanes>
    </data>
    <data timestep="23.00">
        <lanes>
            <lane id="1_0" queueing_time="6.00" queueing_length="6.00" queueing_length_experimental="6.00"/>
            <lane id="4_0" queueing_time="6.00" queueing_length="6.00" queueing_length_experimental="6.00"/>
            <lane id="6_0" queueing_time="2.00" queueing_length="6.00" queueing_length_experimental="6.00"/>
        </lanes>
    </data>
    <data timestep="24.00">
        <lanes>
            <lane id="1_0" queueing_time="7.00" queueing_length="6.00" queueing_length_experimental="6.00"/>
            <lane id="4_0" queueing_time="7.00" queueing_length="6.00" queueing_length_experimental="6.00"/>
            <lane id="6_0" queueing_time="3.00" queueing_length="6.00" queueing_length_experimental="6.00"/>
        </lanes>
    </data>
    <data timestep="25.00">
        <lanes>
            <lane id="1_0" queueing_time="8.00" queueing_length="6.00" queueing_length_experimental="6.00"/>
            <lane id="4_0" queueing_time="8.00" queueing_length="6.00" queueing_length_experimental="6.00"/>
            <lane id="6_0" queueing_time="4.00" queueing_length="6.00" queueing_length_experimental="6.00"/>
        </lanes>
    </data>
    <data timestep="26.00">
        <lanes>
            <lane id="1_0" queueing_time="9.00" queueing_length="6.00" queueing_length_experimental="6.00"/>
            <lane id="4_0" queueing_time="9.00" queueing_length="6.00" queueing_length_experimental="6.00"/>
            <lane id="6_0" queueing_time="5.00" queueing_length="6.00" queueing_length_experimental="6.00"/>
        </lanes>
    </data>
    <data timestep="27.00">
        <lanes>
            <lane id="6_0" queueing_time="6.00" queueing_length="6.00" queueing_length_experimental="6.00"/>
        </lanes>
    </data>
    <data timestep="28.00">
        <lanes>
            <lane id="6_0" queueing_time="7.00" queueing_length="6.00" queueing_length_experimental="6.00"/>
        </lanes>
    </data>
    <data timestep="29.00">
        <lanes>
            <lane id="6_0" queueing_time="8.00" queueing_length="6.00" queueing_length_experimental="6.00"/>
        </lanes>
    </data>
    <data timestep="30.00">
        <lanes>
            <lane id=":cluster_node2_node2-1_1_0" queueing_time="1.00" queueing_length="24.06" queueing_length_experimental="24.06"/>
            <lane id="6_0" queueing_time="9.00" queueing_length="6.00" queueing_length_experimental="6.00"/>
            <lane id="8_4" queueing_time="0.00" queueing_length="0.00" queueing_length_experimental="6.15"/>
        </lanes>
    </data>
    <data timestep="31.00">
        <lanes>
            <lane id=":cluster_node2_node2-1_1_0" queueing_time="2.00" queueing_length="24.06" queueing_length_experimental="24.06"/>
            <lane id="6_0" queueing_time="10.00" queueing_length="6.00" queueing_length_experimental="6.00"/>
            <lane id="6_6" queueing_time="0.00" queueing_length="0.00" queueing_length_experimental="6.59"/>
            <lane id="8_4" queueing_time="0.00" queueing_length="0.00" queueing_length_experimental="6.00"/>
        </lanes>
    </data>
    <data timestep="32.00">
        <lanes>
            <lane id="1_0" queueing_time="1.00" queueing_length="6.01" queueing_length_experimental="6.01"/>
            <lane id="6_0" queueing_time="11.00" queueing_length="6.00" queueing_length_experimental="6.00"/>
            <lane id="6_6" queueing_time="0.00" queueing_length="0.00" queueing_length_experimental="6.15"/>
            <lane id="8_4" queueing_time="1.00" queueing_length="6.00" queueing_length_experimental="6.00"/>
        </lanes>
    </data>
    <data timestep="33.00">
        <lanes>
            <lane id="1_0" queueing_time="2.00" queueing_length="6.00" queueing_length_experimental="6.00"/>
            <lane id="6_6" queueing_time="0.00" queueing_length="0.00" queueing_length_experimental="6.03"/>
            <lane id="8_4" queueing_time="2.00" queueing_length="6.00" queueing_length_experimental="6.00"/>
        </lanes>
    </data>
    <data timestep="34.00">
        <lanes>
            <lane id=":cluster_node2_node2-1_11_0" queueing_time="1.00" queueing_length="21.52" queueing_length_experimental="0.00"/>
            <lane id="1_0" queueing_time="3.00" queueing_length="6.00" queueing_length_experimental="6.00"/>
            <lane id="6_6" queueing_time="1.00" queueing_length="6.01" queueing_length_experimental="6.01"/>
            <lane id="8_4" queueing_time="3.00" queueing_length="6.00" queueing_length_experimental="6.00"/>
        </lanes>
    </data>
    <data timestep="35.00">
        <lanes>
            <lane id=":cluster_node2_node2-1_11_0" queueing_time="2.00" queueing_length="21.52" queueing_length_experimental="0.00"/>
            <lane id="1_0" queueing_time="4.00" queueing_length="6.00" queueing_length_experimental="6.00"/>
            <lane id="4_0" queueing_time="0.00" queueing_length="0.00" queueing_length_experimental="6.04"/>
            <lane id="6_6" queueing_time="2.00" queueing_length="6.00" queueing_length_experimental="6.00"/>
            <lane id="8_4" queueing_time="4.00" queueing_length="6.00" queueing_length_experimental="6.00"/>
        </lanes>
    </data>
    <data timestep="36.00">
        <lanes>
            <lane id=":cluster_node2_node2-1_11_0" queueing_time="3.00" queueing_length="21.52" queueing_length_experimental="0.00"/>
            <lane id="1_0" queueing_time="5.00" queueing_length="6.00" queueing_length_experimental="6.00"/>
            <lane id="4_0" queueing_time="1.00" queueing_length="6.02" queueing_length_experimental="6.02"/>
            <lane id="6_0" queueing_time="0.00" queueing_length="0.00" queueing_length_experimental="23.44"/>
            <lane id="6_6" queueing_time="3.00" queueing_length="6.00" queueing_length_experimental="6.00"/>
            <lane id="8_4" queueing_time="5.00" queueing_length="6.00" queueing_length_experimental="6.00"/>
        </lanes>
    </data>
    <data timestep="37.00">
        <lanes>
            <lane id=":cluster_node2_node2-1_11_0" queueing_time="4.00" queueing_length="21.52" queueing_length_experimental="0.00"/>
            <lane id="1_0" queueing_time="6.00" queueing_length="6.00" queueing_length_experimental="24.15"/>
            <lane id="4_0" queueing_time="2.00" queueing_length="6.00" queueing_length_experimental="6.00"/>
            <lane id="6_6" queueing_time="4.00" queueing_length="6.00" queueing_length_experimental="6.00"/>
            <lane id="8_4" queueing_time="6.00" queueing_length="6.00" queueing_length_experimental="6.00"/>
        </lanes>
    </data>
    <data timestep="38.00">
        <lanes>
            <lane id="1_0" queueing_time="7.00" queueing_length="6.00" queueing_length_experimental="23.02"/>
            <lane id="4_0" queueing_time="3.00" queueing_length="6.00" queueing_length_experimental="6.00"/>
            <lane id="6_0" queueing_time="0.00" queueing_length="0.00" queueing_length_experimental="20.89"/>
            <lane id="6_6" queueing_time="5.00" queueing_length="6.00" queueing_length_experimental="6.00"/>
            <lane id="8_4" queueing_time="7.00" queueing_length="6.00" queueing_length_experimental="6.00"/>
        </lanes>
    </data>
    <data timestep="39.00">
        <lanes>
            <lane id="1_0" queueing_time="8.00" queueing_length="6.00" queueing_length_experimental="21.97"/>
            <lane id="4_0" queueing_time="4.00" queueing_length="6.00" queueing_length_experimental="6.00"/>
            <lane id="6_0" queueing_time="0.00" queueing_length="0.00" queueing_length_experimental="19.90"/>
        </lanes>
    </data>
    <data timestep="40.00">
        <lanes>
            <lane id="1_0" queueing_time="9.00" queueing_length="6.00" queueing_length_experimental="6.00"/>
            <lane id="4_0" queueing_time="5.00" queueing_length="6.00" queueing_length_experimental="6.00"/>
            <lane id="6_0" queueing_time="0.00" queueing_length="0.00" queueing_length_experimental="19.02"/>
        </lanes>
    </data>
    <data timestep="41.00">
        <lanes>
            <lane id="1_0" queueing_time="10.00" queueing_length="6.00" queueing_length_experimental="19.76"/>
            <lane id="4_0" queueing_time="6.00" queueing_length="6.00" queueing_length_experimental="6.00"/>
            <lane id="6_0" queueing_time="0.00" queueing_length="0.00" queueing_length_experimental="18.05"/>
        </lanes>
    </data>
    <data timestep="42.00">
        <lanes>
            <lane id=":cluster_node2_node2-1_6_0" queueing_time="0.00" queueing_length="0.00" queueing_length_experimental="16.17"/>
            <lane id="1_0" queueing_time="11.00" queueing_length="6.00" queueing_length_experimental="18.66"/>
            <lane id="4_0" queueing_time="7.00" queueing_length="6.00" queueing_length_experimental="6.00"/>
        </lanes>
    </data>
    <data timestep="43.00">
        <lanes>
            <lane id=":cluster_node2_node2-1_6_0" queueing_time="0.00" queueing_length="0.00" queueing_length_experimental="15.97"/>
            <lane id="1_0" queueing_time="12.00" queueing_length="6.00" queueing_length_experimental="18.04"/>
            <lane id="4_0" queueing_time="8.00" queueing_length="6.00" queueing_length_experimental="6.00"/>
        </lanes>
    </data>
    <data timestep="44.00">
        <lanes>
            <lane id="1_0" queueing_time="13.00" queueing_length="6.00" queueing_length_experimental="17.33"/>
            <lane id="4_0" queueing_time="9.00" queueing_length="6.00" queueing_length_experimental="6.00"/>
            <lane id="6_4" queueing_time="0.00" queueing_length="0.00" queueing_length_experimental="6.32"/>
        </lanes>
    </data>
    <data timestep="45.00">
        <lanes>
            <lane id="1_0" queueing_time="0.00" queueing_length="0.00" queueing_length_experimental="16.66"/>
            <lane id="6_0" queueing_time="0.00" queueing_length="0.00" queueing_length_experimental="5.14"/>
            <lane id="6_4" queueing_time="0.00" queueing_length="0.00" queueing_length_experimental="6.06"/>
        </lanes>
    </data>
    <data timestep="46.00">
        <lanes>
            <lane id="1_0" queueing_time="0.00" queueing_length="0.00" queueing_length_experimental="15.76"/>
            <lane id="6_0" queueing_time="1.00" queueing_length="5.06" queueing_length_experimental="5.06"/>
            <lane id="6_4" queueing_time="1.00" queueing_length="6.00" queueing_length_experimental="6.00"/>
        </lanes>
    </data>
    <data timestep="47.00">
        <lanes>
            <lane id="6_4" queueing_time="2.00" queueing_length="6.00" queueing_length_experimental="6.00"/>
        </lanes>
    </data>
    <data timestep="48.00">
        <lanes>
            <lane id="6_4" queueing_time="3.00" queueing_length="6.00" queueing_length_experimental="6.00"/>
        </lanes>
    </data>
    <data timestep="49.00">
        <lanes>
            <lane id="1_0" queueing_time="0.00" queueing_length="0.00" queueing_length_experimental="6.54"/>
            <lane id="6_4" queueing_time="4.00" queueing_length="6.00" queueing_length_experimental="6.00"/>
            <lane id="8_0" queueing_time="0.00" queueing_length="0.00" queueing_length_experimental="6.44"/>
        </lanes>
    </data>
    <data timestep="50.00">
        <lanes>
            <lane id="1_0" queueing_time="0.00" queueing_length="0.00" queueing_length_experimental="6.26"/>
            <lane id="6_4" queueing_time="5.00" queueing_length="6.00" queueing_length_experimental="6.00"/>
            <lane id="8_0" queueing_time="0.00" queueing_length="0.00" queueing_length_experimental="6.03"/>
        </lanes>
    </data>
    <data timestep="51.00">
        <lanes>
            <lane id="1_0" queueing_time="0.00" queueing_length="0.00" queueing_length_experimental="6.00"/>
        </lanes>
    </data>
    <data timestep="52.00">
        <lanes>
            <lane id="1_0" queueing_time="1.00" queueing_length="6.00" queueing_length_experimental="6.00"/>
        </lanes>
    </data>
    <data timestep="53.00">
        <lanes>
            <lane id="1_0" queueing_time="2.00" queueing_length="6.00" queueing_length_experimental="6.00"/>
        </lanes>
    </data>
    <data timestep="54.00">
        <lanes>
            <lane id="1_0" queueing_time="3.00" queueing_length="6.00" queueing_length_experimental="6.00"/>
        </lanes>
    </data>
    <data timestep="55.00">
        <lanes>
            <lane id="1_0" queueing_time="4.00" queueing_length="6.00" queueing_length_experimental="6.00"/>
        </lanes>
    </data>
    <data timestep="56.00">
        <lanes>
            <lane id="1_0" queueing_time="5.00" queueing_length="6.00" queueing_length_experimental="6.00"/>
        </lanes>
    </data>
    <data timestep="57.00">
        <lanes>
            <lane id="1_0" queueing_time="6.00" queueing_length="6.00" queueing_length_experimental="6.00"/>
        </lanes>
    </data>
    <data timestep="58.00">
        <lanes>
            <lane id="1_0" queueing_time="7.00" queueing_length="6.00" queueing_length_experimental="6.00"/>
        </lanes>
    </data>
    <data timestep="59.00">
        <lanes>
            <lane id="1_0" queueing_time="8.00" queueing_length="6.00" queueing_length_experimental="6.00"/>
        </lanes>
    </data>
    <data timestep="60.00">
        <lanes>
            <lane id="1_0" queueing_time="9.00" queueing_length="6.00" queueing_length_experimental="6.00"/>
        </lanes>
    </data>
    <data timestep="61.00">
        <lanes>
            <lane id="1_0" queueing_time="10.00" queueing_length="6.00" queueing_length_experimental="6.00"/>
        </lanes>
    </data>
    <data timestep="62.00">
        <lanes>
            <lane id="1_0" queueing_time="11.00" queueing_length="6.00" queueing_length_experimental="6.00"/>
        </lanes>
    </data>
    <data timestep="63.00">
        <lanes/>
    </data>
    <data timestep="64.00">
        <lanes>
            <lane id="6_0" queueing_time="0.00" queueing_length="0.00" queueing_length_experimental="6.66"/>
            <lane id="8_0" queueing_time="0.00" queueing_length="0.00" queueing_length_experimental="6.24"/>
        </lanes>
    </data>
    <data timestep="65.00">
        <lanes>
            <lane id="6_0" queueing_time="0.00" queueing_length="0.00" queueing_length_experimental="6.02"/>
            <lane id="8_0" queueing_time="0.00" queueing_length="0.00" queueing_length_experimental="6.04"/>
        </lanes>
    </data>
    <data timestep="66.00">
        <lanes>
            <lane id="6_0" queueing_time="1.00" queueing_length="6.00" queueing_length_experimental="6.00"/>
            <lane id="8_0" queueing_time="1.00" queueing_length="6.00" queueing_length_experimental="6.00"/>
        </lanes>
    </data>
    <data timestep="67.00">
        <lanes>
            <lane id="6_0" queueing_time="2.00" queueing_length="6.00" queueing_length_experimental="6.00"/>
            <lane id="8_0" queueing_time="2.00" queueing_length="6.00" queueing_length_experimental="6.00"/>
        </lanes>
    </data>
    <data timestep="68.00">
        <lanes>
            <lane id="6_0" queueing_time="3.00" queueing_length="6.00" queueing_length_experimental="6.00"/>
            <lane id="8_0" queueing_time="3.00" queueing_length="6.00" queueing_length_experimental="6.00"/>
        </lanes>
    </data>
    <data timestep="69.00">
        <lanes>
            <lane id="1_0" queueing_time="0.00" queueing_length="0.00" queueing_length_experimental="6.54"/>
        </lanes>
    </data>
    <data timestep="70.00">
        <lanes>
            <lane id="1_0" queueing_time="0.00" queueing_length="0.00" queueing_length_experimental="6.22"/>
        </lanes>
    </data>
    <data timestep="71.00">
        <lanes>
            <lane id="1_0" queueing_time="0.00" queueing_length="0.00" queueing_length_experimental="6.08"/>
        </lanes>
    </data>
    <data timestep="72.00">
        <lanes>
            <lane id="1_0" queueing_time="1.00" queueing_length="6.04" queueing_length_experimental="6.04"/>
        </lanes>
    </data>
    <data timestep="73.00">
        <lanes>
            <lane id="1_0" queueing_time="2.00" queueing_length="6.00" queueing_length_experimental="6.00"/>
        </lanes>
    </data>
    <data timestep="74.00">
        <lanes>
            <lane id="1_0" queueing_time="3.00" queueing_length="6.00" queueing_length_experimental="6.00"/>
        </lanes>
    </data>
    <data timestep="75.00">
        <lanes>
            <lane id="1_0" queueing_time="4.00" queueing_length="6.00" queueing_length_experimental="6.00"/>
            <lane id="6_4" queueing_time="0.00" queueing_length="0.00" queueing_length_experimental="6.04"/>
        </lanes>
    </data>
    <data timestep="76.00">
        <lanes>
            <lane id="1_0" queueing_time="5.00" queueing_length="6.00" queueing_length_experimental="6.00"/>
            <lane id="6_4" queueing_time="1.00" queueing_length="6.01" queueing_length_experimental="6.01"/>
        </lanes>
    </data>
    <data timestep="77.00">
        <lanes>
            <lane id="1_0" queueing_time="6.00" queueing_length="6.00" queueing_length_experimental="6.00"/>
            <lane id="6_4" queueing_time="2.00" queueing_length="6.00" queueing_length_experimental="6.00"/>
        </lanes>
    </data>
    <data timestep="78.00">
        <lanes>
            <lane id="1_0" queueing_time="7.00" queueing_length="6.00" queueing_length_experimental="6.00"/>
            <lane id="6_4" queueing_time="3.00" queueing_length="6.00" queueing_length_experimental="6.00"/>
        </lanes>
    </data>
    <data timestep="79.00">
        <lanes>
            <lane id="1_0" queueing_time="8.00" queueing_length="6.00" queueing_length_experimental="6.00"/>
            <lane id="6_4" queueing_time="4.00" queueing_length="6.00" queueing_length_experimental="6.00"/>
            <lane id="8_2" queueing_time="0.00" queueing_length="0.00" queueing_length_experimental="6.01"/>
        </lanes>
    </data>
    <data timestep="80.00">
        <lanes>
            <lane id="1_0" queueing_time="9.00" queueing_length="6.00" queueing_length_experimental="6.00"/>
            <lane id="6_4" queueing_time="5.00" queueing_length="6.00" queueing_length_experimental="6.00"/>
            <lane id="8_2" queueing_time="1.00" queueing_length="6.00" queueing_length_experimental="6.00"/>
        </lanes>
    </data>
    <data timestep="81.00">
        <lanes>
            <lane id="6_4" queueing_time="6.00" queueing_length="6.00" queueing_length_experimental="6.00"/>
            <lane id="8_2" queueing_time="2.00" queueing_length="6.00" queueing_length_experimental="6.00"/>
        </lanes>
    </data>
    <data timestep="82.00">
        <lanes>
            <lane id="6_4" queueing_time="7.00" queueing_length="6.00" queueing_length_experimental="6.00"/>
            <lane id="8_2" queueing_time="3.00" queueing_length="6.00" queueing_length_experimental="6.00"/>
        </lanes>
    </data>
    <data timestep="83.00">
        <lanes>
            <lane id="6_4" queueing_time="8.00" queueing_length="6.00" queueing_length_experimental="6.00"/>
            <lane id="8_2" queueing_time="4.00" queueing_length="6.00" queueing_length_experimental="6.00"/>
        </lanes>
    </data>
    <data timestep="84.00">
        <lanes>
            <lane id="6_4" queueing_time="9.00" queueing_length="6.00" queueing_length_experimental="6.00"/>
            <lane id="8_2" queueing_time="5.00" queueing_length="6.00" queueing_length_experimental="6.00"/>
        </lanes>
    </data>
    <data timestep="85.00">
        <lanes>
            <lane id="6_0" queueing_time="1.00" queueing_length="6.04" queueing_length_experimental="6.04"/>
            <lane id="6_4" queueing_time="10.00" queueing_length="6.00" queueing_length_experimental="6.00"/>
            <lane id="8_2" queueing_time="6.00" queueing_length="6.00" queueing_length_experimental="6.00"/>
        </lanes>
    </data>
    <data timestep="86.00">
        <lanes>
            <lane id="6_0" queueing_time="2.00" queueing_length="6.01" queueing_length_experimental="6.01"/>
            <lane id="6_4" queueing_time="11.00" queueing_length="6.00" queueing_length_experimental="6.00"/>
            <lane id="8_2" queueing_time="7.00" queueing_length="6.00" queueing_length_experimental="6.00"/>
        </lanes>
    </data>
    <data timestep="87.00">
        <lanes>
            <lane id="4_0" queueing_time="0.00" queueing_length="0.00" queueing_length_experimental="6.82"/>
        </lanes>
    </data>
    <data timestep="88.00">
        <lanes>
            <lane id="1_0" queueing_time="0.00" queueing_length="0.00" queueing_length_experimental="6.35"/>
            <lane id="4_0" queueing_time="0.00" queueing_length="0.00" queueing_length_experimental="6.35"/>
        </lanes>
    </data>
    <data timestep="89.00">
        <lanes>
            <lane id="1_0" queueing_time="0.00" queueing_length="0.00" queueing_length_experimental="6.04"/>
            <lane id="4_0" queueing_time="0.00" queueing_length="0.00" queueing_length_experimental="6.17"/>
        </lanes>
    </data>
    <data timestep="90.00">
        <lanes>
            <lane id="1_0" queueing_time="1.00" queueing_length="6.02" queueing_length_experimental="6.02"/>
            <lane id="4_0" queueing_time="0.00" queueing_length="0.00" queueing_length_experimental="6.02"/>
            <lane id="8_4" queueing_time="1.00" queueing_length="6.00" queueing_length_experimental="6.00"/>
        </lanes>
    </data>
    <data timestep="91.00">
        <lanes>
            <lane id="1_0" queueing_time="2.00" queueing_length="6.00" queueing_length_experimental="6.00"/>
            <lane id="4_0" queueing_time="1.00" queueing_length="6.01" queueing_length_experimental="6.01"/>
            <lane id="8_4" queueing_time="2.00" queueing_length="6.00" queueing_length_experimental="6.00"/>
        </lanes>
    </data>
    <data timestep="92.00">
        <lanes>
            <lane id="1_0" queueing_time="3.00" queueing_length="6.00" queueing_length_experimental="6.00"/>
            <lane id="4_0" queueing_time="2.00" queueing_length="6.00" queueing_length_experimental="6.00"/>
            <lane id="8_4" queueing_time="3.00" queueing_length="6.00" queueing_length_experimental="6.00"/>
        </lanes>
    </data>
    <data timestep="93.00">
        <lanes>
            <lane id="1_0" queueing_time="4.00" queueing_length="6.00" queueing_length_experimental="6.00"/>
            <lane id="4_0" queueing_time="3.00" queueing_length="6.00" queueing_length_experimental="6.00"/>
        </lanes>
    </data>
    <data timestep="94.00">
        <lanes>
            <lane id="1_0" queueing_time="5.00" queueing_length="6.00" queueing_length_experimental="6.00"/>
            <lane id="4_0" queueing_time="4.00" queueing_length="6.00" queueing_length_experimental="6.00"/>
        </lanes>
    </data>
    <data timestep="95.00">
        <lanes>
            <lane id="1_0" queueing_time="6.00" queueing_length="6.00" queueing_length_experimental="6.00"/>
            <lane id="4_0" queueing_time="5.00" queueing_length="6.00" queueing_length_experimental="6.00"/>
        </lanes>
    </data>
    <data timestep="96.00">
        <lanes>
            <lane id="1_0" queueing_time="7.00" queueing_length="6.00" queueing_length_experimental="6.00"/>
            <lane id="4_0" queueing_time="6.00" queueing_length="6.00" queueing_length_experimental="6.00"/>
            <lane id="8_2" queueing_time="0.00" queueing_length="0.00" queueing_length_experimental="6.01"/>
        </lanes>
    </data>
    <data timestep="97.00">
        <lanes>
            <lane id="1_0" queueing_time="8.00" queueing_length="6.00" queueing_length_experimental="6.00"/>
            <lane id="4_0" queueing_time="7.00" queueing_length="6.00" queueing_length_experimental="6.00"/>
            <lane id="8_2" queueing_time="1.00" queueing_length="6.00" queueing_length_experimental="6.00"/>
        </lanes>
    </data>
    <data timestep="98.00">
        <lanes>
            <lane id="1_0" queueing_time="9.00" queueing_length="6.00" queueing_length_experimental="6.00"/>
            <lane id="4_0" queueing_time="8.00" queueing_length="6.00" queueing_length_experimental="6.00"/>
            <lane id="6_4" queueing_time="0.00" queueing_length="0.00" queueing_length_experimental="6.02"/>
            <lane id="8_2" queueing_time="2.00" queueing_length="6.00" queueing_length_experimental="6.00"/>
        </lanes>
    </data>
    <data timestep="99.00">
        <lanes>
            <lane id="6_4" queueing_time="1.00" queueing_length="6.01" queueing_length_experimental="6.01"/>
            <lane id="8_2" queueing_time="3.00" queueing_length="6.00" queueing_length_experimental="6.00"/>
        </lanes>
    </data>
    <data timestep="100.00">
        <lanes>
            <lane id="6_4" queueing_time="2.00" queueing_length="6.01" queueing_length_experimental="6.01"/>
            <lane id="8_2" queueing_time="4.00" queueing_length="6.00" queueing_length_experimental="6.00"/>
        </lanes>
    </data>
    <data timestep="101.00">
        <lanes>
            <lane id="6_4" queueing_time="3.00" queueing_length="6.00" queueing_length_experimental="6.00"/>
            <lane id="8_2" queueing_time="5.00" queueing_length="6.00" queueing_length_experimental="6.00"/>
        </lanes>
    </data>
    <data timestep="102.00">
        <lanes>
            <lane id="6_4" queueing_time="4.00" queueing_length="6.00" queueing_length_experimental="6.00"/>
            <lane id="8_2" queueing_time="6.00" queueing_length="6.00" queueing_length_experimental="6.00"/>
        </lanes>
    </data>
    <data timestep="103.00">
        <lanes>
            <lane id="6_4" queueing_time="5.00" queueing_length="6.00" queueing_length_experimental="6.00"/>
            <lane id="8_2" queueing_time="7.00" queueing_length="6.00" queueing_length_experimental="6.00"/>
        </lanes>
    </data>
    <data timestep="104.00">