<?xml version="1.0" encoding="UTF-8"?>

<!-- generated on 02/01/20 17:18:20 by Eclipse SUMO GUI Version 1.4.0
<configuration xmlns:xsi="http://www.w3.org/2001/XMLSchema-instance" xsi:noNamespaceSchemaLocation="http://sumo.dlr.de/xsd/sumoConfiguration.xsd">

    <input>
        <net-file value="gnet.net.xml"/>
        <route-files value="grou.rou.xml"/>
        <additional-files value="gadd.additional.xml"/>
    </input>

    <output>
        <queue-output value="Queue.xml"/>
        <summary-output value="Summary.xml"/>
        <tripinfo-output value="output-tripinfos.xml"/>
    </output>

    <time>
        <begin value="0"/>
        <end value="3600"/>
    </time>

    <processing>
        <time-to-teleport value="3600"/>
    </processing>

    <traci_server>
        <remote-port value="52591"/>
    </traci_server>

    <gui_only>
        <gui-settings-file value="gview.view.xml"/>
        <quit-on-end value="true"/>
        <start value="true"/>
    </gui_only>

</configuration>
-->

<tripinfos xmlns:xsi="http://www.w3.org/2001/XMLSchema-instance" xsi:noNamespaceSchemaLocation="http://sumo.dlr.de/xsd/tripinfo_file.xsd">
    <tripinfo id="flow3.0" depart="3.00" departLane="10_0" departPos="5.10" departSpeed="0.00" departDelay="3.00" arrival="36.00" arrivalLane="2_0" arrivalPos="219.91" arrivalSpeed="30.75" duration="33.00" routeLength="548.96" waitingTime="0.00" waitingCount="0" stopTime="0.00" timeLoss="17.74" rerouteNo="0" devices="tripinfo_flow3.0" vType="DEFAULT_VEHTYPE" speedFactor="1.08" vaporized=""/>
    <tripinfo id="flow4.0" depart="3.00" departLane="15_0" departPos="5.10" departSpeed="0.00" departDelay="3.00" arrival="37.00" arrivalLane="3_0" arrivalPos="239.09" arrivalSpeed="30.20" duration="34.00" routeLength="509.28" waitingTime="0.00" waitingCount="0" stopTime="0.00" timeLoss="16.88" rerouteNo="0" devices="tripinfo_flow4.0" vType="DEFAULT_VEHTYPE" speedFactor="1.03" vaporized=""/>
    <tripinfo id="flow5.0" depart="0.00" departLane="1_0" departPos="5.10" departSpeed="0.00" departDelay="0.00" arrival="51.00" arrivalLane="3_0" arrivalPos="239.09" arrivalSpeed="32.40" duration="51.00" routeLength="482.91" waitingTime="17.00" waitingCount="1" stopTime="0.00" timeLoss="36.44" rerouteNo="0" devices="tripinfo_flow5.0" vType="DEFAULT_VEHTYPE" speedFactor="0.83" vaporized=""/>
    <tripinfo id="flow8.0" depart="2.00" departLane="4_0" departPos="5.10" departSpeed="0.00" departDelay="2.00" arrival="51.00" arrivalLane="2_0" arrivalPos="219.91" arrivalSpeed="30.83" duration="49.00" routeLength="483.08" waitingTime="13.00" waitingCount="1" stopTime="0.00" timeLoss="35.70" rerouteNo="0" devices="tripinfo_flow8.0" vType="DEFAULT_VEHTYPE" speedFactor="0.94" vaporized=""/>
    <tripinfo id="flow9.0" depart="5.00" departLane="4_0" departPos="5.10" departSpeed="0.00" departDelay="5.00" arrival="55.00" arrivalLane="5_0" arrivalPos="241.33" arrivalSpeed="31.63" duration="50.00" routeLength="486.65" waitingTime="10.00" waitingCount="1" stopTime="0.00" timeLoss="33.98" rerouteNo="0" devices="tripinfo_flow9.0" vType="DEFAULT_VEHTYPE" speedFactor="0.86" vaporized=""/>
    <tripinfo id="flow8.1" depart="10.00" departLane="4_0" departPos="5.10" departSpeed="0.00" departDelay="-0.71" arrival="56.00" arrivalLane="2_0" arrivalPos="219.91" arrivalSpeed="32.13" duration="46.00" routeLength="483.08" waitingTime="8.00" waitingCount="1" stopTime="0.00" timeLoss="32.35" rerouteNo="0" devices="tripinfo_flow8.1" vType="DEFAULT_VEHTYPE" speedFactor="0.94" vaporized=""/>
    <tripinfo id="flow8.2" depart="21.00" departLane="4_0" departPos="5.10" departSpeed="0.00" departDelay="-0.43" arrival="57.00" arrivalLane="2_0" arrivalPos="219.91" arrivalSpeed="31.81" duration="36.00" routeLength="483.08" waitingTime="0.00" waitingCount="0" stopTime="0.00" timeLoss="23.14" rerouteNo="0" devices="tripinfo_flow8.2" vType="DEFAULT_VEHTYPE" speedFactor="0.95" vaporized=""/>
    <tripinfo id="flow10.0" depart="0.00" departLane="4_0" departPos="5.10" departSpeed="0.00" departDelay="0.00" arrival="62.00" arrivalLane="9_0" arrivalPos="151.66" arrivalSpeed="36.36" duration="62.00" routeLength="572.25" waitingTime="24.00" waitingCount="2" stopTime="0.00" timeLoss="44.47" rerouteNo="0" devices="tripinfo_flow10.0" vType="DEFAULT_VEHTYPE" speedFactor="0.94" vaporized=""/>
    <tripinfo id="flow6.0" depart="3.00" departLane="1_0" departPos="5.10" departSpeed="0.00" departDelay="3.00" arrival="63.00" arrivalLane="5_0" arrivalPos="241.33" arrivalSpeed="33.45" duration="60.00" routeLength="482.55" waitingTime="19.00" waitingCount="2" stopTime="0.00" timeLoss="46.64" rerouteNo="0" devices="tripinfo_flow6.0" vType="DEFAULT_VEHTYPE" speedFactor="1.05" vaporized=""/>
    <tripinfo id="flow8.3" depart="32.00" departLane="4_0" departPos="5.10" departSpeed="0.00" departDelay="-0.14" arrival="66.00" arrivalLane="2_0" arrivalPos="219.91" arrivalSpeed="30.88" duration="34.00" routeLength="483.08" waitingTime="0.00" waitingCount="0" stopTime="0.00" timeLoss="20.13" rerouteNo="0" devices="tripinfo_flow8.3" vType="DEFAULT_VEHTYPE" speedFactor="0.90" vaporized=""/>
    <tripinfo id="flow1.0" depart="0.00" departLane="10_0" departPos="5.10" departSpeed="0.00" departDelay="0.00" arrival="67.00" arrivalLane="5_0" arrivalPos="241.33" arrivalSpeed="31.00" duration="67.00" routeLength="566.36" waitingTime="29.00" waitingCount="1" stopTime="0.00" timeLoss="53.52" rerouteNo="0" devices="tripinfo_flow1.0" vType="DEFAULT_VEHTYPE" speedFactor="1.06" vaporized=""/>
    <tripinfo id="flow1.2" depart="9.00" departLane="10_0" departPos="5.10" departSpeed="0.00" departDelay="3.56" arrival="69.00" arrivalLane="5_0" arrivalPos="241.33" arrivalSpeed="30.89" duration="60.00" routeLength="566.36" waitingTime="22.00" waitingCount="1" stopTime="0.00" timeLoss="46.32" rerouteNo="0" devices="tripinfo_flow1.2" vType="DEFAULT_VEHTYPE" speedFactor="1.05" vaporized=""/>
    <tripinfo id="flow1.1" depart="6.00" departLane="10_0" departPos="5.10" departSpeed="0.00" departDelay="3.28" arrival="70.00" arrivalLane="5_0" arrivalPos="241.33" arrivalSpeed="32.06" duration="64.00" routeLength="566.36" waitingTime="24.00" waitingCount="1" stopTime="0.00" timeLoss="50.37" rerouteNo="0" devices="tripinfo_flow1.1" vType="DEFAULT_VEHTYPE" speedFactor="1.09" vaporized=""/>
    <tripinfo id="flow1.4" depart="15.00" departLane="10_0" departPos="5.10" departSpeed="0.00" departDelay="4.12" arrival="71.00" arrivalLane="5_0" arrivalPos="241.33" arrivalSpeed="30.15" duration="56.00" routeLength="566.36" waitingTime="16.00" waitingCount="1" stopTime="0.00" timeLoss="40.83" rerouteNo="0" devices="tripinfo_flow1.4" vType="DEFAULT_VEHTYPE" speedFactor="0.94" vaporized=""/>
    <tripinfo id="flow2.1" depart="6.00" departLane="15_0" departPos="5.10" departSpeed="0.00" departDelay="3.28" arrival="72.00" arrivalLane="9_1" arrivalPos="151.66" arrivalSpeed="36.89" duration="66.00" routeLength="578.86" waitingTime="25.00" waitingCount="2" stopTime="0.00" timeLoss="48.65" rerouteNo="0" devices="tripinfo_flow2.1" vType="DEFAULT_VEHTYPE" speedFactor="1.03" vaporized=""/>
    <tripinfo id="flow1.3" depart="12.00" departLane="10_0" departPos="5.10" departSpeed="0.00" departDelay="3.84" arrival="72.00" arrivalLane="5_1" arrivalPos="241.33" arrivalSpeed="33.24" duration="60.00" routeLength="566.36" waitingTime="19.00" waitingCount="1" stopTime="0.00" timeLoss="45.06" rerouteNo="0" devices="tripinfo_flow1.3" vType="DEFAULT_VEHTYPE" speedFactor="0.99" vaporized=""/>
    <tripinfo id="flow1.5" depart="18.00" departLane="10_0" departPos="5.10" departSpeed="0.00" departDelay="4.40" arrival="73.00" arrivalLane="5_0" arrivalPos="241.33" arrivalSpeed="30.28" duration="55.00" routeLength="566.36" waitingTime="14.00" waitingCount="1" stopTime="0.00" timeLoss="40.89" rerouteNo="0" devices="tripinfo_flow1.5" vType="DEFAULT_VEHTYPE" speedFactor="1.02" vaporized=""/>
    <tripinfo id="flow2.0" depart="0.00" departLane="15_0" departPos="5.10" departSpeed="0.00" departDelay="0.00" arrival="74.00" arrivalLane="9_0" arrivalPos="151.66" arrivalSpeed="35.94" duration="74.00" routeLength="578.86" waitingTime="33.00" waitingCount="2" stopTime="0.00" timeLoss="55.56" rerouteNo="0" devices="tripinfo_flow2.0" vType="DEFAULT_VEHTYPE" speedFactor="1.01" vaporized=""/>
    <tripinfo id="flow1.6" depart="21.00" departLane="10_0" departPos="5.10" departSpeed="0.00" departDelay="4.69" arrival="74.00" arrivalLane="5_1" arrivalPos="241.33" arrivalSpeed="29.24" duration="53.00" routeLength="566.36" waitingTime="11.00" waitingCount="1" stopTime="0.00" timeLoss="38.15" rerouteNo="0" devices="tripinfo_flow1.6" vType="DEFAULT_VEHTYPE" speedFactor="0.98" vaporized=""/>
    <tripinfo id="flow2.2" depart="9.00" departLane="15_0" departPos="5.10" departSpeed="0.00" departDelay="3.56" arrival="75.00" arrivalLane="9_1" arrivalPos="151.66" arrivalSpeed="35.89" duration="66.00" routeLength="578.86" waitingTime="23.00" waitingCount="2" stopTime="0.00" timeLoss="49.89" rerouteNo="0" devices="tripinfo_flow2.2" vType="DEFAULT_VEHTYPE" speedFactor="1.12" vaporized=""/>
    <tripinfo id="flow1.7" depart="24.00" departLane="10_0" departPos="5.10" departSpeed="0.00" departDelay="4.97" arrival="75.00" arrivalLane="5_0" arrivalPos="241.33" arrivalSpeed="30.16" duration="51.00" routeLength="566.36" waitingTime="12.00" waitingCount="1" stopTime="0.00" timeLoss="33.36" rerouteNo="0" devices="tripinfo_flow1.7" vType="DEFAULT_VEHTYPE" speedFactor="0.83" vaporized=""/>
    <tripinfo id="flow2.3" depart="12.00" departLane="15_0" departPos="5.10" departSpeed="0.00" departDelay="3.84" arrival="76.00" arrivalLane="9_0" arrivalPos="151.66" arrivalSpeed="36.44" duration="64.00" routeLength="578.86" waitingTime="19.00" waitingCount="1" stopTime="0.00" timeLoss="43.96" rerouteNo="0" devices="tripinfo_flow2.3" vType="DEFAULT_VEHTYPE" speedFactor="0.93" vaporized=""/>
    <tripinfo id="flow2.4" depart="15.00" departLane="15_0" departPos="5.10" departSpeed="0.00" departDelay="4.12" arrival="76.00" arrivalLane="9_1" arrivalPos="151.66" arrivalSpeed="36.67" duration="61.00" routeLength="578.86" waitingTime="19.00" waitingCount="1" stopTime="0.00" timeLoss="45.69" rerouteNo="0" devices="tripinfo_flow2.4" vType="DEFAULT_VEHTYPE" speedFactor="1.16" vaporized=""/>
    <tripinfo id="flow1.8" depart="27.00" departLane="10_0" departPos="5.10" departSpeed="0.00" departDelay="5.25" arrival="76.00" arrivalLane="5_1" arrivalPos="241.33" arrivalSpeed="30.54" duration="49.00" routeLength="566.36" waitingTime="6.00" waitingCount="1" stopTime="0.00" timeLoss="35.84" rerouteNo="0" devices="tripinfo_flow1.8" vType="DEFAULT_VEHTYPE" speedFactor="1.13" vaporized=""/>
    <tripinfo id="flow1.10" depart="33.00" departLane="10_0" departPos="5.10" departSpeed="0.00" departDelay="5.81" arrival="76.00" arrivalLane="5_0" arrivalPos="241.33" arrivalSpeed="30.57" duration="43.00" routeLength="566.36" waitingTime="1.00" waitingCount="1" stopTime="0.00" timeLoss="28.78" rerouteNo="0" devices="tripinfo_flow1.10" vType="DEFAULT_VEHTYPE" speedFactor="1.01" vaporized=""/>
    <tripinfo id="flow1.9" depart="30.00" departLane="10_0" departPos="5.10" departSpeed="0.00" departDelay="5.53" arrival="77.00" arrivalLane="5_1" arrivalPos="241.33" arrivalSpeed="29.77" duration="47.00" routeLength="566.36" waitingTime="4.00" waitingCount="1" stopTime="0.00" timeLoss="34.63" rerouteNo="0" devices="tripinfo_flow1.9" vType="DEFAULT_VEHTYPE" speedFactor="1.18" vaporized=""/>
    <tripinfo id="flow2.5" depart="18.00" departLane="15_0" departPos="5.10" departSpeed="0.00" departDelay="4.40" arrival="78.00" arrivalLane="9_1" arrivalPos="151.66" arrivalSpeed="35.11" duration="60.00" routeLength="578.86" waitingTime="17.00" waitingCount="1" stopTime="0.00" timeLoss="42.57" rerouteNo="0" devices="tripinfo_flow2.5" vType="DEFAULT_VEHTYPE" speedFactor="1.01" vaporized=""/>
    <tripinfo id="flow2.7" depart="24.00" departLane="15_0" departPos="5.10" departSpeed="0.00" departDelay="4.97" arrival="78.00" arrivalLane="9_0" arrivalPos="151.66" arrivalSpeed="34.89" duration="54.00" routeLength="578.86" waitingTime="7.00" waitingCount="1" stopTime="0.00" timeLoss="32.71" rerouteNo="0" devices="tripinfo_flow2.7" vType="DEFAULT_VEHTYPE" speedFactor="0.87" vaporized=""/>
    <tripinfo id="flow1.11" depart="39.00" departLane="10_0" departPos="5.10" departSpeed="0.00" departDelay="9.09" arrival="78.00" arrivalLane="5_1" arrivalPos="241.33" arrivalSpeed="29.26" duration="39.00" routeLength="566.36" waitingTime="0.00" waitingCount="0" stopTime="0.00" timeLoss="24.33" rerouteNo="0" devices="tripinfo_flow1.11" vType="DEFAULT_VEHTYPE" speedFactor="0.97" vaporized=""/>
    <tripinfo id="flow1.12" depart="42.00" departLane="10_0" departPos="5.10" departSpeed="0.00" departDelay="9.37" arrival="78.00" arrivalLane="5_0" arrivalPos="241.33" arrivalSpeed="30.75" duration="36.00" routeLength="566.36" waitingTime="0.00" waitingCount="0" stopTime="0.00" timeLoss="21.82" rerouteNo="0" devices="tripinfo_flow1.12" vType="DEFAULT_VEHTYPE" speedFactor="1.03" vaporized=""/>
    <tripinfo id="flow2.6" depart="21.00" departLane="15_0" departPos="5.10" departSpeed="0.00" departDelay="4.69" arrival="79.00" arrivalLane="9_0" arrivalPos="151.66" arrivalSpeed="34.80" duration="58.00" routeLength="578.86" waitingTime="10.00" waitingCount="2" stopTime="0.00" timeLoss="37.22" rerouteNo="0" devices="tripinfo_flow2.6" vType="DEFAULT_VEHTYPE" speedFactor="0.89" vaporized=""/>
    <tripinfo id="flow2.8" depart="27.00" departLane="15_0" departPos="5.10" departSpeed="0.00" departDelay="5.25" arrival="80.00" arrivalLane="9_1" arrivalPos="151.66" arrivalSpeed="37.08" duration="53.00" routeLength="578.86" waitingTime="9.00" waitingCount="1" stopTime="0.00" timeLoss="33.26" rerouteNo="0" devices="tripinfo_flow2.8" vType="DEFAULT_VEHTYPE" speedFactor="0.93" vaporized=""/>
    <tripinfo id="flow2.10" depart="33.00" departLane="15_0" departPos="5.10" departSpeed="0.00" departDelay="5.81" arrival="81.00" arrivalLane="9_0" arrivalPos="151.66" arrivalSpeed="34.14" duration="48.00" routeLength="578.86" waitingTime="3.00" waitingCount="1" stopTime="0.00" timeLoss="32.63" rerouteNo="0" devices="tripinfo_flow2.10" vType="DEFAULT_VEHTYPE" speedFactor="1.17" vaporized=""/>
    <tripinfo id="flow4.1" depart="36.00" departLane="15_0" departPos="5.10" departSpeed="0.00" departDelay="7.87" arrival="84.00" arrivalLane="3_0" arrivalPos="239.09" arrivalSpeed="33.26" duration="48.00" routeLength="509.28" waitingTime="4.00" waitingCount="1" stopTime="0.00" timeLoss="30.41" rerouteNo="0" devices="tripinfo_flow4.1" vType="DEFAULT_VEHTYPE" speedFactor="0.99" vaporized=""/>
    <tripinfo id="flow3.1" depart="36.00" departLane="10_0" departPos="5.10" departSpeed="0.00" departDelay="7.65" arrival="85.00" arrivalLane="2_0" arrivalPos="219.91" arrivalSpeed="30.04" duration="49.00" routeLength="548.96" waitingTime="11.00" waitingCount="1" stopTime="0.00" timeLoss="33.65" rerouteNo="0" devices="tripinfo_flow3.1" vType="DEFAULT_VEHTYPE" speedFactor="1.02" vaporized=""/>
    <tripinfo id="flow8.4" depart="42.00" departLane="4_0" departPos="5.10" departSpeed="0.00" departDelay="-0.86" arrival="104.00" arrivalLane="2_0" arrivalPos="219.91" arrivalSpeed="32.40" duration="62.00" routeLength="483.08" waitingTime="25.00" waitingCount="1" stopTime="0.00" timeLoss="46.91" rerouteNo="0" devices="tripinfo_flow8.4" vType="DEFAULT_VEHTYPE" speedFactor="0.85" vaporized=""/>
    <tripinfo id="flow7.0" depart="6.00" departLane="1_0" departPos="5.10" departSpeed="0.00" departDelay="6.00" arrival="105.00" arrivalLane="9_0" arrivalPos="151.66" arrivalSpeed="34.93" duration="99.00" routeLength="538.42" waitingTime="54.00" waitingCount="3" stopTime="0.00" timeLoss="82.34" rerouteNo="0" devices="tripinfo_flow7.0" vType="DEFAULT_VEHTYPE" speedFactor="0.89" vaporized=""/>
    <tripinfo id="flow5.1" depart="10.00" departLane="1_0" departPos="5.10" departSpeed="0.00" departDelay="-0.68" arrival="105.00" arrivalLane="3_0" arrivalPos="239.09" arrivalSpeed="33.89" duration="95.00" routeLength="482.91" waitingTime="50.00" waitingCount="3" stopTime="0.00" timeLoss="80.85" rerouteNo="0" devices="tripinfo_flow5.1" vType="DEFAULT_VEHTYPE" speedFactor="0.88" vaporized=""/>
    <tripinfo id="flow8.5" depart="53.00" departLane="4_0" departPos="5.10" departSpeed="0.00" departDelay="-0.57" arrival="105.00" arrivalLane="2_0" arrivalPos="219.91" arrivalSpeed="29.51" duration="52.00" routeLength="483.08" waitingTime="17.00" waitingCount="1" stopTime="0.00" timeLoss="39.29" rerouteNo="0" devices="tripinfo_flow8.5" vType="DEFAULT_VEHTYPE" speedFactor="0.97" vaporized=""/>
    <tripinfo id="flow5.2" depart="21.00" departLane="1_0" departPos="5.10" departSpeed="0.00" departDelay="-0.36" arrival="107.00" arrivalLane="3_0" arrivalPos="239.09" arrivalSpeed="34.74" duration="86.00" routeLength="482.91" waitingTime="38.00" waitingCount="3" stopTime="0.00" timeLoss="71.92" rerouteNo="0" devices="tripinfo_flow5.2" vType="DEFAULT_VEHTYPE" speedFactor="0.92" vaporized=""/>
    <tripinfo id="flow8.6" depart="64.00" departLane="4_0" departPos="5.10" departSpeed="0.00" departDelay="-0.28" arrival="107.00" arrivalLane="2_0" arrivalPos="219.91" arrivalSpeed="31.77" duration="43.00" routeLength="483.08" waitingTime="8.00" waitingCount="1" stopTime="0.00" timeLoss="29.87" rerouteNo="0" devices="tripinfo_flow8.6" vType="DEFAULT_VEHTYPE" speedFactor="0.97" vaporized=""/>
    <tripinfo id="flow5.3" depart="32.00" departLane="1_0" departPos="5.10" departSpeed="0.00" departDelay="-0.05" arrival="108.00" arrivalLane="3_0" arrivalPos="239.09" arrivalSpeed="33.37" duration="76.00" routeLength="482.91" waitingTime="35.00" waitingCount="2" stopTime="0.00" timeLoss="64.75" rerouteNo="0" devices="tripinfo_flow5.3" vType="DEFAULT_VEHTYPE" speedFactor="1.10" vaporized=""/>
    <tripinfo id="flow8.7" depart="75.00" departLane="4_0" departPos="5.10" departSpeed="0.00" departDelay="0.00" arrival="108.00" arrivalLane="2_0" arrivalPos="219.91" arrivalSpeed="31.49" duration="33.00" routeLength="483.08" waitingTime="0.00" waitingCount="0" stopTime="0.00" timeLoss="20.69" rerouteNo="0" devices="tripinfo_flow8.7" vType="DEFAULT_VEHTYPE" speedFactor="1.00" vaporized=""/>
    <tripinfo id="flow5.4" depart="42.00" departLane="1_0" departPos="5.10" departSpeed="0.00" departDelay="-0.73" arrival="110.00" arrivalLane="3_0" arrivalPos="239.09" arrivalSpeed="33.10" duration="68.00" routeLength="482.91" waitingTime="30.00" waitingCount="1" stopTime="0.00" timeLoss="53.47" rerouteNo="0" devices="tripinfo_flow5.4" vType="DEFAULT_VEHTYPE" speedFactor="0.88" vaporized=""/>
    <tripinfo id="flow8.8" depart="85.00" departLane="4_0" departPos="5.10" departSpeed="0.00" departDelay="-0.71" arrival="110.00" arrivalLane="2_0" arrivalPos="219.91" arrivalSpeed="34.52" duration="25.00" routeLength="483.08" waitingTime="0.00" waitingCount="0" stopTime="0.00" timeLoss="11.28" rerouteNo="0" devices="tripinfo_flow8.8" vType="DEFAULT_VEHTYPE" speedFactor="0.92" vaporized=""/>
    <tripinfo id="flow5.5" depart="57.00" departLane="1_0" departPos="5.10" departSpeed="0.00" departDelay="3.59" arrival="111.00" arrivalLane="3_0" arrivalPos="239.09" arrivalSpeed="33.98" duration="54.00" routeLength="482.91" waitingTime="19.00" waitingCount="1" stopTime="0.00" timeLoss="42.06" rerouteNo="0" devices="tripinfo_flow5.5" vType="DEFAULT_VEHTYPE" speedFactor="1.02" vaporized=""/>
    <tripinfo id="flow5.6" depart="66.00" departLane="1_0" departPos="5.10" departSpeed="0.00" departDelay="1.91" arrival="113.00" arrivalLane="3_0" arrivalPos="239.09" arrivalSpeed="35.48" duration="47.00" routeLength="482.91" waitingTime="10.00" waitingCount="1" stopTime="0.00" timeLoss="34.46" rerouteNo="0" devices="tripinfo_flow5.6" vType="DEFAULT_VEHTYPE" speedFactor="1.02" vaporized=""/>
    <tripinfo id="flow5.7" depart="74.00" departLane="1_0" departPos="5.10" departSpeed="0.00" departDelay="-0.77" arrival="114.00" arrivalLane="3_0" arrivalPos="239.09" arrivalSpeed="35.32" duration="40.00" routeLength="482.91" waitingTime="4.00" waitingCount="1" stopTime="0.00" timeLoss="28.03" rerouteNo="0" devices="tripinfo_flow5.7" vType="DEFAULT_VEHTYPE" speedFactor="1.03" vaporized=""/>
    <tripinfo id="flow2.9" depart="30.00" departLane="15_0" departPos="5.10" departSpeed="0.00" departDelay="5.53" arrival="121.00" arrivalLane="9_1" arrivalPos="151.66" arrivalSpeed="36.21" duration="91.00" routeLength="578.86" waitingTime="41.00" waitingCount="2" stopTime="0.00" timeLoss="75.41" rerouteNo="0" devices="tripinfo_flow2.9" vType="DEFAULT_VEHTYPE" speedFactor="1.15" vaporized=""/>
    <tripinfo id="flow1.13" depart="45.00" departLane="10_0" departPos="5.10" departSpeed="0.00" departDelay="9.65" arrival="121.00" arrivalLane="5_1" arrivalPos="241.33" arrivalSpeed="31.70" duration="76.00" routeLength="566.36" waitingTime="33.00" waitingCount="1" stopTime="0.00" timeLoss="62.70" rerouteNo="0" devices="tripinfo_flow1.13" vType="DEFAULT_VEHTYPE" speedFactor="1.09" vaporized=""/>
    <tripinfo id="flow2.12" depart="42.00" departLane="15_0" departPos="5.10" departSpeed="0.00" departDelay="9.37" arrival="122.00" arrivalLane="9_0" arrivalPos="151.66" arrivalSpeed="37.48" duration="80.00" routeLength="578.86" waitingTime="33.00" waitingCount="1" stopTime="0.00" timeLoss="60.73" rerouteNo="0" devices="tripinfo_flow2.12" vType="DEFAULT_VEHTYPE" speedFactor="0.96" vaporized=""/>
    <tripinfo id="flow2.13" depart="45.00" departLane="15_0" departPos="5.10" departSpeed="0.00" departDelay="9.65" arrival="122.00" arrivalLane="9_1" arrivalPos="151.66" arrivalSpeed="35.81" duration="77.00" routeLength="578.86" waitingTime="31.00" waitingCount="1" stopTime="0.00" timeLoss="60.01" rerouteNo="0" devices="tripinfo_flow2.13" vType="DEFAULT_VEHTYPE" speedFactor="1.04" vaporized=""/>
    <tripinfo id="flow1.14" depart="48.00" departLane="10_0" departPos="5.10" departSpeed="0.00" departDelay="9.93" arrival="122.00" arrivalLane="5_0" arrivalPos="241.33" arrivalSpeed="30.66" duration="74.00" routeLength="566.36" waitingTime="32.00" waitingCount="1" stopTime="0.00" timeLoss="59.85" rerouteNo="0" devices="tripinfo_flow1.14" vType="DEFAULT_VEHTYPE" speedFactor="1.04" vaporized=""/>
    <tripinfo id="flow1.15" depart="51.00" departLane="10_0" departPos="5.10" departSpeed="0.00" departDelay="10.22" arrival="123.00" arrivalLane="5_1" arrivalPos="241.33" arrivalSpeed="31.57" duration="72.00" routeLength="566.36" waitingTime="31.00" waitingCount="1" stopTime="0.00" timeLoss="57.14" rerouteNo="0" devices="tripinfo_flow1.15" vType="DEFAULT_VEHTYPE" speedFactor="1.00" vaporized=""/>
    <tripinfo id="flow1.16" depart="54.00" departLane="10_0" departPos="5.10" departSpeed="0.00" departDelay="10.50" arrival="123.00" arrivalLane="5_0" arrivalPos="241.33" arrivalSpeed="31.16" duration="69.00" routeLength="566.36" waitingTime="29.00" waitingCount="1" stopTime="0.00" timeLoss="52.33" rerouteNo="0" devices="tripinfo_flow1.16" vType="DEFAULT_VEHTYPE" speedFactor="0.85" vaporized=""/>
    <tripinfo id="flow2.11" depart="39.00" departLane="15_0" departPos="5.10" departSpeed="0.00" departDelay="9.09" arrival="124.00" arrivalLane="9_0" arrivalPos="151.66" arrivalSpeed="36.26" duration="85.00" routeLength="578.86" waitingTime="33.00" waitingCount="1" stopTime="0.00" timeLoss="69.56" rerouteNo="0" devices="tripinfo_flow2.11" vType="DEFAULT_VEHTYPE" speedFactor="1.18" vaporized=""/>
    <tripinfo id="flow2.14" depart="48.00" departLane="15_0" departPos="5.10" departSpeed="0.00" departDelay="9.93" arrival="124.00" arrivalLane="9_1" arrivalPos="151.66" arrivalSpeed="37.00" duration="76.00" routeLength="578.86" waitingTime="31.00" waitingCount="1" stopTime="0.00" timeLoss="59.14" rerouteNo="0" devices="tripinfo_flow2.14" vType="DEFAULT_VEHTYPE" speedFactor="1.09" vaporized=""/>
    <tripinfo id="flow1.17" depart="57.00" departLane="10_0" departPos="5.10" departSpeed="0.00" departDelay="10.78" arrival="124.00" arrivalLane="5_1" arrivalPos="241.33" arrivalSpeed="30.86" duration="67.00" routeLength="566.36" waitingTime="27.00" waitingCount="1" stopTime="0.00" timeLoss="52.72" rerouteNo="0" devices="tripinfo_flow1.17" vType="DEFAULT_VEHTYPE" speedFactor="1.02" vaporized=""/>
    <tripinfo id="flow2.15" depart="51.00" departLane="15_0" departPos="5.10" departSpeed="0.00" departDelay="10.22" arrival="125.00" arrivalLane="9_0" arrivalPos="151.66" arrivalSpeed="35.32" duration="74.00" routeLength="578.86" waitingTime="32.00" waitingCount="1" stopTime="0.00" timeLoss="53.80" rerouteNo="0" devices="tripinfo_flow2.15" vType="DEFAULT_VEHTYPE" speedFactor="0.90" vaporized=""/>
    <tripinfo id="flow1.18" depart="60.00" departLane="10_0" departPos="5.10" departSpeed="0.00" departDelay="11.06" arrival="125.00" arrivalLane="5_0" arrivalPos="241.33" arrivalSpeed="32.63" duration="65.00" routeLength="566.36" waitingTime="23.00" waitingCount="1" stopTime="0.00" timeLoss="50.36" rerouteNo="0" devices="tripinfo_flow1.18" vType="DEFAULT_VEHTYPE" speedFactor="1.00" vaporized=""/>
    <tripinfo id="flow2.16" depart="54.00" departLane="15_0" departPos="5.10" departSpeed="0.00" departDelay="10.50" arrival="126.00" arrivalLane="9_1" arrivalPos="151.66" arrivalSpeed="35.87" duration="72.00" routeLength="578.86" waitingTime="30.00" waitingCount="1" stopTime="0.00" timeLoss="56.90" rerouteNo="0" devices="tripinfo_flow2.16" vType="DEFAULT_VEHTYPE" speedFactor="1.17" vaporized=""/>
    <tripinfo id="flow1.19" depart="63.00" departLane="10_0" departPos="5.10" departSpeed="0.00" departDelay="11.34" arrival="126.00" arrivalLane="5_0" arrivalPos="241.33" arrivalSpeed="30.78" duration="63.00" routeLength="566.36" waitingTime="22.00" waitingCount="1" stopTime="0.00" timeLoss="47.06" rerouteNo="0" devices="tripinfo_flow1.19" vType="DEFAULT_VEHTYPE" speedFactor="0.90" vaporized=""/>
    <tripinfo id="flow1.20" depart="66.00" departLane="10_0" departPos="5.10" departSpeed="0.00" departDelay="11.62" arrival="126.00" arrivalLane="5_1" arrivalPos="241.33" arrivalSpeed="32.62" duration="60.00" routeLength="566.36" waitingTime="20.00" waitingCount="1" stopTime="0.00" timeLoss="46.23" rerouteNo="0" devices="tripinfo_flow1.20" vType="DEFAULT_VEHTYPE" speedFactor="1.08" vaporized=""/>
    <tripinfo id="flow2.17" depart="57.00" departLane="15_0" departPos="5.10" departSpeed="0.00" departDelay="10.78" arrival="127.00" arrivalLane="9_0" arrivalPos="151.66" arrivalSpeed="35.22" duration="70.00" routeLength="578.86" waitingTime="28.00" waitingCount="1" stopTime="0.00" timeLoss="53.18" rerouteNo="0" devices="tripinfo_flow2.17" vType="DEFAULT_VEHTYPE" speedFactor="1.10" vaporized=""/>
    <tripinfo id="flow1.21" depart="72.00" departLane="10_0" departPos="5.10" departSpeed="0.00" departDelay="14.90" arrival="127.00" arrivalLane="5_1" arrivalPos="241.33" arrivalSpeed="30.94" duration="55.00" routeLength="566.36" waitingTime="15.00" waitingCount="1" stopTime="0.00" timeLoss="39.63" rerouteNo="0" devices="tripinfo_flow1.21" vType="DEFAULT_VEHTYPE" speedFactor="0.94" vaporized=""/>
    <tripinfo id="flow2.18" depart="60.00" departLane="15_0" departPos="5.10" departSpeed="0.00" departDelay="11.06" arrival="128.00" arrivalLane="9_1" arrivalPos="151.66" arrivalSpeed="39.12" duration="68.00" routeLength="578.86" waitingTime="27.00" waitingCount="1" stopTime="0.00" timeLoss="49.61" rerouteNo="0" devices="tripinfo_flow2.18" vType="DEFAULT_VEHTYPE" speedFactor="1.00" vaporized=""/>
    <tripinfo id="flow1.24" depart="81.00" departLane="10_0" departPos="5.10" departSpeed="0.00" departDelay="15.74" arrival="128.00" arrivalLane="5_0" arrivalPos="241.33" arrivalSpeed="30.84" duration="47.00" routeLength="566.36" waitingTime="6.00" waitingCount="1" stopTime="0.00" timeLoss="31.54" rerouteNo="0" devices="tripinfo_flow1.24" vType="DEFAULT_VEHTYPE" speedFactor="0.94" vaporized=""/>
    <tripinfo id="flow2.19" depart="63.00" departLane="15_0" departPos="5.10" departSpeed="0.00" departDelay="11.34" arrival="129.00" arrivalLane="9_1" arrivalPos="151.66" arrivalSpeed="36.23" duration="66.00" routeLength="578.86" waitingTime="26.00" waitingCount="1" stopTime="0.00" timeLoss="50.36" rerouteNo="0" devices="tripinfo_flow2.19" vType="DEFAULT_VEHTYPE" speedFactor="1.14" vaporized=""/>
    <tripinfo id="flow2.20" depart="66.00" departLane="15_0" departPos="5.10" departSpeed="0.00" departDelay="11.62" arrival="129.00" arrivalLane="9_0" arrivalPos="151.66" arrivalSpeed="37.13" duration="63.00" routeLength="578.86" waitingTime="21.00" waitingCount="1" stopTime="0.00" timeLoss="46.45" rerouteNo="0" devices="tripinfo_flow2.20" vType="DEFAULT_VEHTYPE" speedFactor="1.12" vaporized=""/>
    <tripinfo id="flow1.22" depart="75.00" departLane="10_0" departPos="5.10" departSpeed="0.00" departDelay="15.18" arrival="129.00" arrivalLane="5_1" arrivalPos="241.33" arrivalSpeed="32.62" duration="54.00" routeLength="566.36" waitingTime="11.00" waitingCount="1" stopTime="0.00" timeLoss="37.67" rerouteNo="0" devices="tripinfo_flow1.22" vType="DEFAULT_VEHTYPE" speedFactor="0.91" vaporized=""/>
    <tripinfo id="flow1.26" depart="87.00" departLane="10_0" departPos="5.10" departSpeed="0.00" departDelay="16.31" arrival="129.00" arrivalLane="5_0" arrivalPos="241.33" arrivalSpeed="30.41" duration="42.00" routeLength="566.36" waitingTime="0.00" waitingCount="0" stopTime="0.00" timeLoss="28.27" rerouteNo="0" devices="tripinfo_flow1.26" vType="DEFAULT_VEHTYPE" speedFactor="1.03" vaporized=""/>
    <tripinfo id="flow1.25" depart="84.00" departLane="10_0" departPos="5.10" departSpeed="0.00" departDelay="16.03" arrival="130.00" arrivalLane="5_1" arrivalPos="241.33" arrivalSpeed="32.71" duration="46.00" routeLength="566.36" waitingTime="5.00" waitingCount="1" stopTime="0.00" timeLoss="30.83" rerouteNo="0" devices="tripinfo_flow1.25" vType="DEFAULT_VEHTYPE" speedFactor="0.96" vaporized=""/>