<?xml version="1.0" encoding="UTF-8"?>

<!-- generated on 02/04/20 22:58:26 by Eclipse SUMO Version 1.4.0
<configuration xmlns:xsi="http://www.w3.org/2001/XMLSchema-instance" xsi:noNamespaceSchemaLocation="http://sumo.dlr.de/xsd/sumoConfiguration.xsd">

    <input>
        <net-file value="D:\GitHub\ly_schoolhelper\路网提升\单点枚举_1.27/gnet.net.xml"/>
        <route-files value="D:\GitHub\ly_schoolhelper\路网提升\单点枚举_1.27/grou.rou.xml"/>
        <additional-files value="D:\GitHub\ly_schoolhelper\路网提升\单点枚举_1.27/gadd.additional.xml"/>
    </input>

    <output>
        <queue-output value="D:\GitHub\ly_schoolhelper\路网提升\单点枚举_1.27/Queue.xml"/>
        <summary-output value="D:\GitHub\ly_schoolhelper\路网提升\单点枚举_1.27/Summary.xml"/>
        <tripinfo-output value="D:\GitHub\ly_schoolhelper\路网提升\单点枚举_1.27/output-tripinfos.xml"/>
    </output>

    <time>
        <begin value="0"/>
        <end value="3600"/>
    </time>

    <processing>
        <time-to-teleport value="3600"/>
    </processing>

    <traci_server>
        <remote-port value="60733"/>
    </traci_server>

    <gui_only>
        <gui-settings-file value="D:\GitHub\ly_schoolhelper\路网提升\单点枚举_1.27/gview.view.xml"/>
        <quit-on-end value="true"/>
        <start value="true"/>
    </gui_only>

</configuration>
-->

<tripinfos xmlns:xsi="http://www.w3.org/2001/XMLSchema-instance" xsi:noNamespaceSchemaLocation="http://sumo.dlr.de/xsd/tripinfo_file.xsd">
    <tripinfo id="flow3.0" depart="3.00" departLane="10_0" departPos="5.10" departSpeed="0.00" departDelay="3.00" arrival="36.00" arrivalLane="2_0" arrivalPos="219.91" arrivalSpeed="30.75" duration="33.00" routeLength="548.96" waitingTime="0.00" waitingCount="0" stopTime="0.00" timeLoss="17.74" rerouteNo="0" devices="tripinfo_flow3.0" vType="DEFAULT_VEHTYPE" speedFactor="1.08" vaporized=""/>
    <tripinfo id="flow4.0" depart="3.00" departLane="15_0" departPos="5.10" departSpeed="0.00" departDelay="3.00" arrival="37.00" arrivalLane="3_0" arrivalPos="239.09" arrivalSpeed="30.20" duration="34.00" routeLength="509.28" waitingTime="0.00" waitingCount="0" stopTime="0.00" timeLoss="16.88" rerouteNo="0" devices="tripinfo_flow4.0" vType="DEFAULT_VEHTYPE" speedFactor="1.03" vaporized=""/>
    <tripinfo id="flow5.0" depart="0.00" departLane="1_0" departPos="5.10" departSpeed="0.00" departDelay="0.00" arrival="51.00" arrivalLane="3_0" arrivalPos="239.09" arrivalSpeed="32.40" duration="51.00" routeLength="482.91" waitingTime="17.00" waitingCount="1" stopTime="0.00" timeLoss="36.44" rerouteNo="0" devices="tripinfo_flow5.0" vType="DEFAULT_VEHTYPE" speedFactor="0.83" vaporized=""/>
    <tripinfo id="flow8.0" depart="2.00" departLane="4_0" departPos="5.10" departSpeed="0.00" departDelay="2.00" arrival="51.00" arrivalLane="2_0" arrivalPos="219.91" arrivalSpeed="30.83" duration="49.00" routeLength="483.08" waitingTime="13.00" waitingCount="1" stopTime="0.00" timeLoss="35.70" rerouteNo="0" devices="tripinfo_flow8.0" vType="DEFAULT_VEHTYPE" speedFactor="0.94" vaporized=""/>
    <tripinfo id="flow9.0" depart="5.00" departLane="4_0" departPos="5.10" departSpeed="0.00" departDelay="5.00" arrival="55.00" arrivalLane="5_0" arrivalPos="241.33" arrivalSpeed="31.63" duration="50.00" routeLength="486.65" waitingTime="10.00" waitingCount="1" stopTime="0.00" timeLoss="33.98" rerouteNo="0" devices="tripinfo_flow9.0" vType="DEFAULT_VEHTYPE" speedFactor="0.86" vaporized=""/>
    <tripinfo id="flow8.1" depart="10.00" departLane="4_0" departPos="5.10" departSpeed="0.00" departDelay="-0.71" arrival="56.00" arrivalLane="2_0" arrivalPos="219.91" arrivalSpeed="32.13" duration="46.00" routeLength="483.08" waitingTime="8.00" waitingCount="1" stopTime="0.00" timeLoss="32.35" rerouteNo="0" devices="tripinfo_flow8.1" vType="DEFAULT_VEHTYPE" speedFactor="0.94" vaporized=""/>
    <tripinfo id="flow8.2" depart="21.00" departLane="4_0" departPos="5.10" departSpeed="0.00" departDelay="-0.43" arrival="57.00" arrivalLane="2_0" arrivalPos="219.91" arrivalSpeed="31.81" duration="36.00" routeLength="483.08" waitingTime="0.00" waitingCount="0" stopTime="0.00" timeLoss="23.14" rerouteNo="0" devices="tripinfo_flow8.2" vType="DEFAULT_VEHTYPE" speedFactor="0.95" vaporized=""/>
    <tripinfo id="flow10.0" depart="0.00" departLane="4_0" departPos="5.10" departSpeed="0.00" departDelay="0.00" arrival="62.00" arrivalLane="9_0" arrivalPos="151.66" arrivalSpeed="36.27" duration="62.00" routeLength="572.25" waitingTime="24.00" waitingCount="2" stopTime="0.00" timeLoss="44.46" rerouteNo="0" devices="tripinfo_flow10.0" vType="DEFAULT_VEHTYPE" speedFactor="0.94" vaporized=""/>
    <tripinfo id="flow6.0" depart="3.00" departLane="1_0" departPos="5.10" departSpeed="0.00" departDelay="3.00" arrival="63.00" arrivalLane="5_0" arrivalPos="241.33" arrivalSpeed="32.83" duration="60.00" routeLength="482.55" waitingTime="19.00" waitingCount="2" stopTime="0.00" timeLoss="46.62" rerouteNo="0" devices="tripinfo_flow6.0" vType="DEFAULT_VEHTYPE" speedFactor="1.05" vaporized=""/>
    <tripinfo id="flow8.3" depart="32.00" departLane="4_0" departPos="5.10" departSpeed="0.00" departDelay="-0.14" arrival="66.00" arrivalLane="2_0" arrivalPos="219.91" arrivalSpeed="31.06" duration="34.00" routeLength="483.08" waitingTime="0.00" waitingCount="0" stopTime="0.00" timeLoss="20.22" rerouteNo="0" devices="tripinfo_flow8.3" vType="DEFAULT_VEHTYPE" speedFactor="0.90" vaporized=""/>
    <tripinfo id="flow5.1" depart="10.00" departLane="1_0" departPos="5.10" departSpeed="0.00" departDelay="-0.68" arrival="67.00" arrivalLane="3_0" arrivalPos="239.09" arrivalSpeed="33.83" duration="57.00" routeLength="482.91" waitingTime="15.00" waitingCount="2" stopTime="0.00" timeLoss="42.52" rerouteNo="0" devices="tripinfo_flow5.1" vType="DEFAULT_VEHTYPE" speedFactor="0.88" vaporized=""/>
    <tripinfo id="flow7.0" depart="6.00" departLane="1_0" departPos="5.10" departSpeed="0.00" departDelay="6.00" arrival="68.00" arrivalLane="9_0" arrivalPos="151.66" arrivalSpeed="34.50" duration="62.00" routeLength="538.42" waitingTime="17.00" waitingCount="2" stopTime="0.00" timeLoss="45.40" rerouteNo="0" devices="tripinfo_flow7.0" vType="DEFAULT_VEHTYPE" speedFactor="0.89" vaporized=""/>
    <tripinfo id="flow5.2" depart="21.00" departLane="1_0" departPos="5.10" departSpeed="0.00" departDelay="-0.36" arrival="68.00" arrivalLane="3_0" arrivalPos="239.09" arrivalSpeed="34.01" duration="47.00" routeLength="482.91" waitingTime="4.00" waitingCount="2" stopTime="0.00" timeLoss="33.45" rerouteNo="0" devices="tripinfo_flow5.2" vType="DEFAULT_VEHTYPE" speedFactor="0.92" vaporized=""/>
    <tripinfo id="flow8.4" depart="42.00" departLane="4_0" departPos="5.10" departSpeed="0.00" departDelay="-0.86" arrival="68.00" arrivalLane="2_0" arrivalPos="219.91" arrivalSpeed="33.16" duration="26.00" routeLength="483.08" waitingTime="0.00" waitingCount="0" stopTime="0.00" timeLoss="10.93" rerouteNo="0" devices="tripinfo_flow8.4" vType="DEFAULT_VEHTYPE" speedFactor="0.85" vaporized=""/>
    <tripinfo id="flow5.3" depart="32.00" departLane="1_0" departPos="5.10" departSpeed="0.00" departDelay="-0.05" arrival="70.00" arrivalLane="3_0" arrivalPos="239.09" arrivalSpeed="33.08" duration="38.00" routeLength="482.91" waitingTime="1.00" waitingCount="1" stopTime="0.00" timeLoss="26.79" rerouteNo="0" devices="tripinfo_flow5.3" vType="DEFAULT_VEHTYPE" speedFactor="1.10" vaporized=""/>
    <tripinfo id="flow5.4" depart="42.00" departLane="1_0" departPos="5.10" departSpeed="0.00" departDelay="-0.73" arrival="72.00" arrivalLane="3_0" arrivalPos="239.09" arrivalSpeed="34.14" duration="30.00" routeLength="482.91" waitingTime="0.00" waitingCount="0" stopTime="0.00" timeLoss="15.27" rerouteNo="0" devices="tripinfo_flow5.4" vType="DEFAULT_VEHTYPE" speedFactor="0.88" vaporized=""/>
    <tripinfo id="flow8.5" depart="53.00" departLane="4_0" departPos="5.10" departSpeed="0.00" departDelay="-0.57" arrival="75.00" arrivalLane="2_0" arrivalPos="219.91" arrivalSpeed="38.49" duration="22.00" routeLength="483.08" waitingTime="0.00" waitingCount="0" stopTime="0.00" timeLoss="9.26" rerouteNo="0" devices="tripinfo_flow8.5" vType="DEFAULT_VEHTYPE" speedFactor="0.97" vaporized=""/>
    <tripinfo id="flow5.5" depart="57.00" departLane="1_0" departPos="5.10" departSpeed="0.00" departDelay="3.59" arrival="79.00" arrivalLane="3_0" arrivalPos="239.09" arrivalSpeed="40.10" duration="22.00" routeLength="482.91" waitingTime="0.00" waitingCount="0" stopTime="0.00" timeLoss="9.61" rerouteNo="0" devices="tripinfo_flow5.5" vType="DEFAULT_VEHTYPE" speedFactor="1.02" vaporized=""/>
    <tripinfo id="flow1.0" depart="0.00" departLane="10_0" departPos="5.10" departSpeed="0.00" departDelay="0.00" arrival="88.00" arrivalLane="5_0" arrivalPos="241.33" arrivalSpeed="28.26" duration="88.00" routeLength="566.36" waitingTime="49.00" waitingCount="1" stopTime="0.00" timeLoss="74.62" rerouteNo="0" devices="tripinfo_flow1.0" vType="DEFAULT_VEHTYPE" speedFactor="1.06" vaporized=""/>
    <tripinfo id="flow1.1" depart="6.00" departLane="10_0" departPos="5.10" departSpeed="0.00" departDelay="3.28" arrival="88.00" arrivalLane="5_1" arrivalPos="241.33" arrivalSpeed="30.58" duration="82.00" routeLength="566.36" waitingTime="44.00" waitingCount="1" stopTime="0.00" timeLoss="68.68" rerouteNo="0" devices="tripinfo_flow1.1" vType="DEFAULT_VEHTYPE" speedFactor="1.09" vaporized=""/>
    <tripinfo id="flow2.1" depart="6.00" departLane="15_0" departPos="5.10" departSpeed="0.00" departDelay="3.28" arrival="88.00" arrivalLane="9_1" arrivalPos="151.66" arrivalSpeed="37.10" duration="82.00" routeLength="578.86" waitingTime="43.00" waitingCount="1" stopTime="0.00" timeLoss="64.72" rerouteNo="0" devices="tripinfo_flow2.1" vType="DEFAULT_VEHTYPE" speedFactor="1.03" vaporized=""/>
    <tripinfo id="flow2.0" depart="0.00" departLane="15_0" departPos="5.10" departSpeed="0.00" departDelay="0.00" arrival="89.00" arrivalLane="9_0" arrivalPos="151.66" arrivalSpeed="36.72" duration="89.00" routeLength="578.86" waitingTime="51.00" waitingCount="1" stopTime="0.00" timeLoss="71.05" rerouteNo="0" devices="tripinfo_flow2.0" vType="DEFAULT_VEHTYPE" speedFactor="1.01" vaporized=""/>
    <tripinfo id="flow1.3" depart="12.00" departLane="10_0" departPos="5.10" departSpeed="0.00" departDelay="3.84" arrival="89.00" arrivalLane="5_1" arrivalPos="241.33" arrivalSpeed="29.43" duration="77.00" routeLength="566.36" waitingTime="39.00" waitingCount="1" stopTime="0.00" timeLoss="62.64" rerouteNo="0" devices="tripinfo_flow1.3" vType="DEFAULT_VEHTYPE" speedFactor="0.99" vaporized=""/>
    <tripinfo id="flow1.2" depart="9.00" departLane="10_0" departPos="5.10" departSpeed="0.00" departDelay="3.56" arrival="90.00" arrivalLane="5_0" arrivalPos="241.33" arrivalSpeed="30.24" duration="81.00" routeLength="566.36" waitingTime="42.00" waitingCount="1" stopTime="0.00" timeLoss="67.10" rerouteNo="0" devices="tripinfo_flow1.2" vType="DEFAULT_VEHTYPE" speedFactor="1.05" vaporized=""/>
    <tripinfo id="flow2.2" depart="9.00" departLane="15_0" departPos="5.10" departSpeed="0.00" departDelay="3.56" arrival="91.00" arrivalLane="9_1" arrivalPos="151.66" arrivalSpeed="36.05" duration="82.00" routeLength="578.86" waitingTime="42.00" waitingCount="1" stopTime="0.00" timeLoss="66.00" rerouteNo="0" devices="tripinfo_flow2.2" vType="DEFAULT_VEHTYPE" speedFactor="1.12" vaporized=""/>
    <tripinfo id="flow1.6" depart="21.00" departLane="10_0" departPos="5.10" departSpeed="0.00" departDelay="4.69" arrival="91.00" arrivalLane="5_1" arrivalPos="241.33" arrivalSpeed="31.49" duration="70.00" routeLength="566.36" waitingTime="31.00" waitingCount="1" stopTime="0.00" timeLoss="55.00" rerouteNo="0" devices="tripinfo_flow1.6" vType="DEFAULT_VEHTYPE" speedFactor="0.98" vaporized=""/>
    <tripinfo id="flow2.3" depart="12.00" departLane="15_0" departPos="5.10" departSpeed="0.00" departDelay="3.84" arrival="92.00" arrivalLane="9_0" arrivalPos="151.66" arrivalSpeed="36.74" duration="80.00" routeLength="578.86" waitingTime="39.00" waitingCount="1" stopTime="0.00" timeLoss="60.04" rerouteNo="0" devices="tripinfo_flow2.3" vType="DEFAULT_VEHTYPE" speedFactor="0.93" vaporized=""/>
    <tripinfo id="flow1.4" depart="15.00" departLane="10_0" departPos="5.10" departSpeed="0.00" departDelay="4.12" arrival="92.00" arrivalLane="5_0" arrivalPos="241.33" arrivalSpeed="31.18" duration="77.00" routeLength="566.36" waitingTime="36.00" waitingCount="1" stopTime="0.00" timeLoss="61.08" rerouteNo="0" devices="tripinfo_flow1.4" vType="DEFAULT_VEHTYPE" speedFactor="0.94" vaporized=""/>
    <tripinfo id="flow2.4" depart="15.00" departLane="15_0" departPos="5.10" departSpeed="0.00" departDelay="4.12" arrival="92.00" arrivalLane="9_1" arrivalPos="151.66" arrivalSpeed="37.16" duration="77.00" routeLength="578.86" waitingTime="39.00" waitingCount="1" stopTime="0.00" timeLoss="61.61" rerouteNo="0" devices="tripinfo_flow2.4" vType="DEFAULT_VEHTYPE" speedFactor="1.16" vaporized=""/>
    <tripinfo id="flow1.8" depart="27.00" departLane="10_0" departPos="5.10" departSpeed="0.00" departDelay="5.25" arrival="92.00" arrivalLane="5_1" arrivalPos="241.33" arrivalSpeed="31.04" duration="65.00" routeLength="566.36" waitingTime="26.00" waitingCount="1" stopTime="0.00" timeLoss="52.39" rerouteNo="0" devices="tripinfo_flow1.8" vType="DEFAULT_VEHTYPE" speedFactor="1.13" vaporized=""/>
    <tripinfo id="flow1.5" depart="18.00" departLane="10_0" departPos="5.10" departSpeed="0.00" departDelay="4.40" arrival="93.00" arrivalLane="5_0" arrivalPos="241.33" arrivalSpeed="29.98" duration="75.00" routeLength="566.36" waitingTime="34.00" waitingCount="1" stopTime="0.00" timeLoss="60.81" rerouteNo="0" devices="tripinfo_flow1.5" vType="DEFAULT_VEHTYPE" speedFactor="1.02" vaporized=""/>
    <tripinfo id="flow2.7" depart="24.00" departLane="15_0" departPos="5.10" departSpeed="0.00" departDelay="4.97" arrival="93.00" arrivalLane="9_0" arrivalPos="151.66" arrivalSpeed="34.12" duration="69.00" routeLength="578.86" waitingTime="27.00" waitingCount="1" stopTime="0.00" timeLoss="48.45" rerouteNo="0" devices="tripinfo_flow2.7" vType="DEFAULT_VEHTYPE" speedFactor="0.87" vaporized=""/>
    <tripinfo id="flow2.5" depart="18.00" departLane="15_0" departPos="5.10" departSpeed="0.00" departDelay="4.40" arrival="94.00" arrivalLane="9_1" arrivalPos="151.66" arrivalSpeed="37.78" duration="76.00" routeLength="578.86" waitingTime="37.00" waitingCount="1" stopTime="0.00" timeLoss="58.35" rerouteNo="0" devices="tripinfo_flow2.5" vType="DEFAULT_VEHTYPE" speedFactor="1.01" vaporized=""/>
    <tripinfo id="flow1.9" depart="30.00" departLane="10_0" departPos="5.10" departSpeed="0.00" departDelay="5.53" arrival="94.00" arrivalLane="5_1" arrivalPos="241.33" arrivalSpeed="30.16" duration="64.00" routeLength="566.36" waitingTime="24.00" waitingCount="1" stopTime="0.00" timeLoss="51.62" rerouteNo="0" devices="tripinfo_flow1.9" vType="DEFAULT_VEHTYPE" speedFactor="1.18" vaporized=""/>
    <tripinfo id="flow2.6" depart="21.00" departLane="15_0" departPos="5.10" departSpeed="0.00" departDelay="4.69" arrival="95.00" arrivalLane="9_0" arrivalPos="151.66" arrivalSpeed="35.53" duration="74.00" routeLength="578.86" waitingTime="30.00" waitingCount="2" stopTime="0.00" timeLoss="53.22" rerouteNo="0" devices="tripinfo_flow2.6" vType="DEFAULT_VEHTYPE" speedFactor="0.89" vaporized=""/>
    <tripinfo id="flow1.7" depart="24.00" departLane="10_0" departPos="5.10" departSpeed="0.00" departDelay="4.97" arrival="95.00" arrivalLane="5_0" arrivalPos="241.33" arrivalSpeed="31.28" duration="71.00" routeLength="566.36" waitingTime="32.00" waitingCount="1" stopTime="0.00" timeLoss="53.01" rerouteNo="0" devices="tripinfo_flow1.7" vType="DEFAULT_VEHTYPE" speedFactor="0.83" vaporized=""/>
    <tripinfo id="flow1.11" depart="39.00" departLane="10_0" departPos="5.10" departSpeed="0.00" departDelay="9.09" arrival="95.00" arrivalLane="5_1" arrivalPos="241.33" arrivalSpeed="30.33" duration="56.00" routeLength="566.36" waitingTime="16.00" waitingCount="1" stopTime="0.00" timeLoss="41.29" rerouteNo="0" devices="tripinfo_flow1.11" vType="DEFAULT_VEHTYPE" speedFactor="0.97" vaporized=""/>
    <tripinfo id="flow2.8" depart="27.00" departLane="15_0" departPos="5.10" departSpeed="0.00" departDelay="5.25" arrival="96.00" arrivalLane="9_1" arrivalPos="151.66" arrivalSpeed="35.92" duration="69.00" routeLength="578.86" waitingTime="29.00" waitingCount="1" stopTime="0.00" timeLoss="49.88" rerouteNo="0" devices="tripinfo_flow2.8" vType="DEFAULT_VEHTYPE" speedFactor="0.93" vaporized=""/>
    <tripinfo id="flow1.10" depart="33.00" departLane="10_0" departPos="5.10" departSpeed="0.00" departDelay="5.81" arrival="96.00" arrivalLane="5_0" arrivalPos="241.33" arrivalSpeed="30.20" duration="63.00" routeLength="566.36" waitingTime="20.00" waitingCount="1" stopTime="0.00" timeLoss="48.69" rerouteNo="0" devices="tripinfo_flow1.10" vType="DEFAULT_VEHTYPE" speedFactor="1.01" vaporized=""/>
    <tripinfo id="flow2.10" depart="33.00" departLane="15_0" departPos="5.10" departSpeed="0.00" departDelay="5.81" arrival="96.00" arrivalLane="9_0" arrivalPos="151.66" arrivalSpeed="35.64" duration="63.00" routeLength="578.86" waitingTime="23.00" waitingCount="1" stopTime="0.00" timeLoss="48.10" rerouteNo="0" devices="tripinfo_flow2.10" vType="DEFAULT_VEHTYPE" speedFactor="1.17" vaporized=""/>
    <tripinfo id="flow1.14" depart="48.00" departLane="10_0" departPos="5.10" departSpeed="0.00" departDelay="9.93" arrival="97.00" arrivalLane="5_1" arrivalPos="241.33" arrivalSpeed="31.88" duration="49.00" routeLength="566.36" waitingTime="9.00" waitingCount="1" stopTime="0.00" timeLoss="34.98" rerouteNo="0" devices="tripinfo_flow1.14" vType="DEFAULT_VEHTYPE" speedFactor="1.04" vaporized=""/>
    <tripinfo id="flow2.9" depart="30.00" departLane="15_0" departPos="5.10" departSpeed="0.00" departDelay="5.53" arrival="98.00" arrivalLane="9_1" arrivalPos="151.66" arrivalSpeed="37.36" duration="68.00" routeLength="578.86" waitingTime="27.00" waitingCount="1" stopTime="0.00" timeLoss="52.51" rerouteNo="0" devices="tripinfo_flow2.9" vType="DEFAULT_VEHTYPE" speedFactor="1.15" vaporized=""/>
    <tripinfo id="flow1.12" depart="42.00" departLane="10_0" departPos="5.10" departSpeed="0.00" departDelay="9.37" arrival="98.00" arrivalLane="5_0" arrivalPos="241.33" arrivalSpeed="32.48" duration="56.00" routeLength="566.36" waitingTime="15.00" waitingCount="1" stopTime="0.00" timeLoss="41.52" rerouteNo="0" devices="tripinfo_flow1.12" vType="DEFAULT_VEHTYPE" speedFactor="1.03" vaporized=""/>
    <tripinfo id="flow2.12" depart="42.00" departLane="15_0" departPos="5.10" departSpeed="0.00" departDelay="9.37" arrival="99.00" arrivalLane="9_0" arrivalPos="151.66" arrivalSpeed="37.02" duration="57.00" routeLength="578.86" waitingTime="15.00" waitingCount="1" stopTime="0.00" timeLoss="38.31" rerouteNo="0" devices="tripinfo_flow2.12" vType="DEFAULT_VEHTYPE" speedFactor="0.96" vaporized=""/>
    <tripinfo id="flow2.11" depart="39.00" departLane="15_0" departPos="5.10" departSpeed="0.00" departDelay="9.09" arrival="100.00" arrivalLane="9_0" arrivalPos="151.66" arrivalSpeed="37.16" duration="61.00" routeLength="578.86" waitingTime="15.00" waitingCount="1" stopTime="0.00" timeLoss="46.20" rerouteNo="0" devices="tripinfo_flow2.11" vType="DEFAULT_VEHTYPE" speedFactor="1.18" vaporized=""/>
    <tripinfo id="flow3.1" depart="36.00" departLane="10_0" departPos="5.10" departSpeed="0.00" departDelay="7.65" arrival="105.00" arrivalLane="2_0" arrivalPos="219.91" arrivalSpeed="29.41" duration="69.00" routeLength="548.96" waitingTime="31.00" waitingCount="1" stopTime="0.00" timeLoss="54.13" rerouteNo="0" devices="tripinfo_flow3.1" vType="DEFAULT_VEHTYPE" speedFactor="1.02" vaporized=""/>
    <tripinfo id="flow4.1" depart="36.00" departLane="15_0" departPos="5.10" departSpeed="0.00" departDelay="7.87" arrival="106.00" arrivalLane="3_0" arrivalPos="239.09" arrivalSpeed="33.70" duration="70.00" routeLength="509.28" waitingTime="26.00" waitingCount="2" stopTime="0.00" timeLoss="52.06" rerouteNo="0" devices="tripinfo_flow4.1" vType="DEFAULT_VEHTYPE" speedFactor="0.99" vaporized=""/>
    <tripinfo id="flow3.2" depart="69.00" departLane="10_0" departPos="5.10" departSpeed="0.00" departDelay="12.31" arrival="107.00" arrivalLane="2_0" arrivalPos="219.91" arrivalSpeed="30.01" duration="38.00" routeLength="548.96" waitingTime="1.00" waitingCount="1" stopTime="0.00" timeLoss="22.82" rerouteNo="0" devices="tripinfo_flow3.2" vType="DEFAULT_VEHTYPE" speedFactor="0.99" vaporized=""/>
    <tripinfo id="flow4.2" depart="69.00" departLane="15_0" departPos="5.10" departSpeed="0.00" departDelay="12.75" arrival="110.00" arrivalLane="3_0" arrivalPos="239.09" arrivalSpeed="30.81" duration="41.00" routeLength="509.28" waitingTime="0.00" waitingCount="0" stopTime="0.00" timeLoss="23.91" rerouteNo="0" devices="tripinfo_flow4.2" vType="DEFAULT_VEHTYPE" speedFactor="1.02" vaporized=""/>
    <tripinfo id="flow5.6" depart="68.00" departLane="1_0" departPos="5.10" departSpeed="0.00" departDelay="3.91" arrival="124.00" arrivalLane="3_0" arrivalPos="239.09" arrivalSpeed="31.88" duration="56.00" routeLength="482.91" waitingTime="21.00" waitingCount="1" stopTime="0.00" timeLoss="43.61" rerouteNo="0" devices="tripinfo_flow5.6" vType="DEFAULT_VEHTYPE" speedFactor="1.02" vaporized=""/>
    <tripinfo id="flow8.6" depart="64.00" departLane="4_0" departPos="5.10" departSpeed="0.00" departDelay="-0.28" arrival="124.00" arrivalLane="2_0" arrivalPos="219.91" arrivalSpeed="32.16" duration="60.00" routeLength="483.08" waitingTime="24.00" waitingCount="1" stopTime="0.00" timeLoss="46.85" rerouteNo="0" devices="tripinfo_flow8.6" vType="DEFAULT_VEHTYPE" speedFactor="0.97" vaporized=""/>
    <tripinfo id="flow5.7" depart="75.00" departLane="1_0" departPos="5.10" departSpeed="0.00" departDelay="0.23" arrival="125.00" arrivalLane="3_0" arrivalPos="239.09" arrivalSpeed="32.79" duration="50.00" routeLength="482.91" waitingTime="16.00" waitingCount="1" stopTime="0.00" timeLoss="38.08" rerouteNo="0" devices="tripinfo_flow5.7" vType="DEFAULT_VEHTYPE" speedFactor="1.03" vaporized=""/>
    <tripinfo id="flow8.7" depart="75.00" departLane="4_0" departPos="5.10" departSpeed="0.00" departDelay="0.00" arrival="125.00" arrivalLane="2_0" arrivalPos="219.91" arrivalSpeed="30.97" duration="50.00" routeLength="483.08" waitingTime="14.00" waitingCount="1" stopTime="0.00" timeLoss="37.64" rerouteNo="0" devices="tripinfo_flow8.7" vType="DEFAULT_VEHTYPE" speedFactor="1.00" vaporized=""/>
    <tripinfo id="flow5.8" depart="85.00" departLane="1_0" departPos="5.10" departSpeed="0.00" departDelay="-0.46" arrival="127.00" arrivalLane="3_0" arrivalPos="239.09" arrivalSpeed="33.21" duration="42.00" routeLength="482.91" waitingTime="6.00" waitingCount="1" stopTime="0.00" timeLoss="27.03" rerouteNo="0" devices="tripinfo_flow5.8" vType="DEFAULT_VEHTYPE" speedFactor="0.83" vaporized=""/>
    <tripinfo id="flow8.8" depart="85.00" departLane="4_0" departPos="5.10" departSpeed="0.00" departDelay="-0.71" arrival="127.00" arrivalLane="2_0" arrivalPos="219.91" arrivalSpeed="30.79" duration="42.00" routeLength="483.08" waitingTime="6.00" waitingCount="1" stopTime="0.00" timeLoss="28.53" rerouteNo="0" devices="tripinfo_flow8.8" vType="DEFAULT_VEHTYPE" speedFactor="0.92" vaporized=""/>
    <tripinfo id="flow9.1" depart="91.00" departLane="4_0" departPos="5.10" departSpeed="0.00" departDelay="5.29" arrival="131.00" arrivalLane="5_0" arrivalPos="241.33" arrivalSpeed="30.18" duration="40.00" routeLength="486.65" waitingTime="1.00" waitingCount="1" stopTime="0.00" timeLoss="24.96" rerouteNo="0" devices="tripinfo_flow9.1" vType="DEFAULT_VEHTYPE" speedFactor="0.91" vaporized=""/>
    <tripinfo id="flow8.9" depart="96.00" departLane="4_0" departPos="5.10" departSpeed="0.00" departDelay="-0.43" arrival="131.00" arrivalLane="2_0" arrivalPos="219.91" arrivalSpeed="32.02" duration="35.00" routeLength="483.08" waitingTime="0.00" waitingCount="0" stopTime="0.00" timeLoss="22.83" rerouteNo="0" devices="tripinfo_flow8.9" vType="DEFAULT_VEHTYPE" speedFactor="1.03" vaporized=""/>
    <tripinfo id="flow6.1" depart="88.00" departLane="1_0" departPos="5.10" departSpeed="0.00" departDelay="2.29" arrival="138.00" arrivalLane="5_0" arrivalPos="241.33" arrivalSpeed="32.17" duration="50.00" routeLength="482.55" waitingTime="6.00" waitingCount="2" stopTime="0.00" timeLoss="36.68" rerouteNo="0" devices="tripinfo_flow6.1" vType="DEFAULT_VEHTYPE" speedFactor="1.06" vaporized=""/>
    <tripinfo id="flow10.1" depart="88.00" departLane="4_0" departPos="5.10" departSpeed="0.00" departDelay="2.29" arrival="139.00" arrivalLane="9_0" arrivalPos="151.66" arrivalSpeed="37.30" duration="51.00" routeLength="572.25" waitingTime="6.00" waitingCount="1" stopTime="0.00" timeLoss="35.70" rerouteNo="0" devices="tripinfo_flow10.1" vType="DEFAULT_VEHTYPE" speedFactor="1.09" vaporized=""/>
    <tripinfo id="flow5.9" depart="96.00" departLane="1_0" departPos="5.10" departSpeed="0.00" departDelay="-0.14" arrival="140.00" arrivalLane="3_0" arrivalPos="239.09" arrivalSpeed="33.26" duration="44.00" routeLength="482.91" waitingTime="2.00" waitingCount="1" stopTime="0.00" timeLoss="31.91" rerouteNo="0" devices="tripinfo_flow5.9" vType="DEFAULT_VEHTYPE" speedFactor="1.01" vaporized=""/>
    <tripinfo id="flow7.1" depart="91.00" departLane="1_0" departPos="5.10" departSpeed="0.00" departDelay="5.29" arrival="142.00" arrivalLane="9_0" arrivalPos="151.66" arrivalSpeed="35.40" duration="51.00" routeLength="538.42" waitingTime="5.00" waitingCount="2" stopTime="0.00" timeLoss="35.86" rerouteNo="0" devices="tripinfo_flow7.1" vType="DEFAULT_VEHTYPE" speedFactor="1.01" vaporized=""/>
    <tripinfo id="flow5.10" depart="107.00" departLane="1_0" departPos="5.10" departSpeed="0.00" departDelay="0.18" arrival="142.00" arrivalLane="3_0" arrivalPos="239.09" arrivalSpeed="31.91" duration="35.00" routeLength="482.91" waitingTime="0.00" waitingCount="0" stopTime="0.00" timeLoss="24.72" rerouteNo="0" devices="tripinfo_flow5.10" vType="DEFAULT_VEHTYPE" speedFactor="1.18" vaporized=""/>
    <tripinfo id="flow8.10" depart="107.00" departLane="4_0" departPos="5.10" departSpeed="0.00" departDelay="-0.14" arrival="142.00" arrivalLane="2_0" arrivalPos="219.91" arrivalSpeed="30.29" duration="35.00" routeLength="483.08" waitingTime="2.00" waitingCount="1" stopTime="0.00" timeLoss="22.73" rerouteNo="0" devices="tripinfo_flow8.10" vType="DEFAULT_VEHTYPE" speedFactor="1.00" vaporized=""/>
    <tripinfo id="flow5.11" depart="117.00" departLane="1_0" departPos="5.10" departSpeed="0.00" departDelay="-0.50" arrival="144.00" arrivalLane="3_0" arrivalPos="239.09" arrivalSpeed="34.21" duration="27.00" routeLength="482.91" waitingTime="0.00" waitingCount="0" stopTime="0.00" timeLoss="15.80" rerouteNo="0" devices="tripinfo_flow5.11" vType="DEFAULT_VEHTYPE" speedFactor="1.12" vaporized=""/>
    <tripinfo id="flow8.11" depart="117.00" departLane="4_0" departPos="5.10" departSpeed="0.00" departDelay="-0.85" arrival="144.00" arrivalLane="2_0" arrivalPos="219.91" arrivalSpeed="33.63" duration="27.00" routeLength="483.08" waitingTime="0.00" waitingCount="0" stopTime="0.00" timeLoss="14.25" rerouteNo="0" devices="tripinfo_flow8.11" vType="DEFAULT_VEHTYPE" speedFactor="1.01" vaporized=""/>
    <tripinfo id="flow1.15" depart="51.00" departLane="10_0" departPos="5.10" departSpeed="0.00" departDelay="10.22" arrival="159.00" arrivalLane="5_0" arrivalPos="241.33" arrivalSpeed="33.75" duration="108.00" routeLength="566.36" waitingTime="60.00" waitingCount="2" stopTime="0.00" timeLoss="93.15" rerouteNo="0" devices="tripinfo_flow1.15" vType="DEFAULT_VEHTYPE" speedFactor="1.00" vaporized=""/>
    <tripinfo id="flow1.13" depart="45.00" departLane="10_0" departPos="5.10" departSpeed="0.00" departDelay="9.65" arrival="160.00" arrivalLane="5_0" arrivalPos="241.33" arrivalSpeed="28.88" duration="115.00" routeLength="566.36" waitingTime="66.00" waitingCount="2" stopTime="0.00" timeLoss="101.60" rerouteNo="0" devices="tripinfo_flow1.13" vType="DEFAULT_VEHTYPE" speedFactor="1.09" vaporized=""/>
    <tripinfo id="flow1.17" depart="57.00" departLane="10_0" departPos="5.10" departSpeed="0.00" departDelay="10.78" arrival="160.00" arrivalLane="5_1" arrivalPos="241.33" arrivalSpeed="31.54" duration="103.00" routeLength="566.36" waitingTime="54.00" waitingCount="2" stopTime="0.00" timeLoss="88.99" rerouteNo="0" devices="tripinfo_flow1.17" vType="DEFAULT_VEHTYPE" speedFactor="1.02" vaporized=""/>
    <tripinfo id="flow2.13" depart="45.00" departLane="15_0" departPos="5.10" departSpeed="0.00" departDelay="9.65" arrival="161.00" arrivalLane="9_1" arrivalPos="151.66" arrivalSpeed="35.93" duration="116.00" routeLength="578.86" waitingTime="71.00" waitingCount="2" stopTime="0.00" timeLoss="98.64" rerouteNo="0" devices="tripinfo_flow2.13" vType="DEFAULT_VEHTYPE" speedFactor="1.04" vaporized=""/>
    <tripinfo id="flow1.16" depart="54.00" departLane="10_0" departPos="5.10" departSpeed="0.00" departDelay="10.50" arrival="161.00" arrivalLane="5_0" arrivalPos="241.33" arrivalSpeed="28.54" duration="107.00" routeLength="566.36" waitingTime="57.00" waitingCount="2" stopTime="0.00" timeLoss="90.22" rerouteNo="0" devices="tripinfo_flow1.16" vType="DEFAULT_VEHTYPE" speedFactor="0.85" vaporized=""/>
    <tripinfo id="flow2.15" depart="51.00" departLane="15_0" departPos="5.10" departSpeed="0.00" departDelay="10.22" arrival="162.00" arrivalLane="9_0" arrivalPos="151.66" arrivalSpeed="35.48" duration="111.00" routeLength="578.86" waitingTime="62.00" waitingCount="2" stopTime="0.00" timeLoss="90.73" rerouteNo="0" devices="tripinfo_flow2.15" vType="DEFAULT_VEHTYPE" speedFactor="0.90" vaporized=""/>