<?xml version="1.0" encoding="UTF-8"?>

<!-- generated on 04/05/20 22:11:47 by Eclipse SUMO GUI Version 1.4.0
<configuration xmlns:xsi="http://www.w3.org/2001/XMLSchema-instance" xsi:noNamespaceSchemaLocation="http://sumo.dlr.de/xsd/sumoConfiguration.xsd">

    <input>
        <net-file value="d:\GitHub\ly_schoolhelper\路网提升\单点智能DQN1/gnet.net.xml"/>
        <route-files value="d:\GitHub\ly_schoolhelper\路网提升\单点智能DQN1/grou.rou.xml"/>
        <additional-files value="d:\GitHub\ly_schoolhelper\路网提升\单点智能DQN1/gadd.additional.xml"/>
    </input>

    <output>
        <queue-output value="d:\GitHub\ly_schoolhelper\路网提升\单点智能DQN1/Queue.xml"/>
        <summary-output value="d:\GitHub\ly_schoolhelper\路网提升\单点智能DQN1/Summary.xml"/>
        <tripinfo-output value="d:\GitHub\ly_schoolhelper\路网提升\单点智能DQN1/output-tripinfos.xml"/>
    </output>

    <time>
        <begin value="0"/>
        <end value="3600"/>
    </time>

    <processing>
        <time-to-teleport value="3600"/>
    </processing>

    <traci_server>
        <remote-port value="53543"/>
    </traci_server>

    <gui_only>
        <gui-settings-file value="d:\GitHub\ly_schoolhelper\路网提升\单点智能DQN1/gview.view.xml"/>
        <quit-on-end value="true"/>
        <start value="true"/>
    </gui_only>

</configuration>
-->

<tripinfos xmlns:xsi="http://www.w3.org/2001/XMLSchema-instance" xsi:noNamespaceSchemaLocation="http://sumo.dlr.de/xsd/tripinfo_file.xsd">
    <tripinfo id="flow1.0" depart="0.00" departLane="10_0" departPos="5.10" departSpeed="0.00" departDelay="0.00" arrival="25.00" arrivalLane="5_0" arrivalPos="241.33" arrivalSpeed="41.97" duration="25.00" routeLength="566.36" waitingTime="0.00" waitingCount="0" stopTime="0.00" timeLoss="11.34" rerouteNo="0" devices="tripinfo_flow1.0" vType="DEFAULT_VEHTYPE" speedFactor="1.06" vaporized=""/>
    <tripinfo id="flow1.1" depart="6.00" departLane="10_0" departPos="5.10" departSpeed="0.00" departDelay="3.06" arrival="30.00" arrivalLane="5_0" arrivalPos="241.33" arrivalSpeed="42.81" duration="24.00" routeLength="566.36" waitingTime="0.00" waitingCount="0" stopTime="0.00" timeLoss="10.30" rerouteNo="0" devices="tripinfo_flow1.1" vType="DEFAULT_VEHTYPE" speedFactor="1.09" vaporized=""/>
    <tripinfo id="flow2.0" depart="0.00" departLane="15_0" departPos="5.10" departSpeed="0.00" departDelay="0.00" arrival="34.00" arrivalLane="9_0" arrivalPos="151.66" arrivalSpeed="38.39" duration="34.00" routeLength="578.86" waitingTime="0.00" waitingCount="0" stopTime="0.00" timeLoss="15.69" rerouteNo="0" devices="tripinfo_flow2.0" vType="DEFAULT_VEHTYPE" speedFactor="1.01" vaporized=""/>
    <tripinfo id="flow1.2" depart="9.00" departLane="10_0" departPos="5.10" departSpeed="0.00" departDelay="3.12" arrival="34.00" arrivalLane="5_0" arrivalPos="241.33" arrivalSpeed="41.37" duration="25.00" routeLength="566.36" waitingTime="0.00" waitingCount="0" stopTime="0.00" timeLoss="10.56" rerouteNo="0" devices="tripinfo_flow1.2" vType="DEFAULT_VEHTYPE" speedFactor="1.05" vaporized=""/>
    <tripinfo id="flow1.3" depart="12.00" departLane="10_0" departPos="5.10" departSpeed="0.00" departDelay="3.19" arrival="37.00" arrivalLane="5_0" arrivalPos="241.33" arrivalSpeed="38.59" duration="25.00" routeLength="566.36" waitingTime="0.00" waitingCount="0" stopTime="0.00" timeLoss="10.02" rerouteNo="0" devices="tripinfo_flow1.3" vType="DEFAULT_VEHTYPE" speedFactor="0.99" vaporized=""/>
    <tripinfo id="flow2.1" depart="6.00" departLane="15_0" departPos="5.10" departSpeed="0.00" departDelay="3.06" arrival="39.00" arrivalLane="9_1" arrivalPos="151.66" arrivalSpeed="39.11" duration="33.00" routeLength="578.86" waitingTime="0.00" waitingCount="0" stopTime="0.00" timeLoss="15.62" rerouteNo="0" devices="tripinfo_flow2.1" vType="DEFAULT_VEHTYPE" speedFactor="1.03" vaporized=""/>
    <tripinfo id="flow1.4" depart="15.00" departLane="10_0" departPos="5.10" departSpeed="0.00" departDelay="3.25" arrival="40.00" arrivalLane="5_0" arrivalPos="241.33" arrivalSpeed="35.04" duration="25.00" routeLength="566.36" waitingTime="0.00" waitingCount="0" stopTime="0.00" timeLoss="8.69" rerouteNo="0" devices="tripinfo_flow1.4" vType="DEFAULT_VEHTYPE" speedFactor="0.88" vaporized=""/>
    <tripinfo id="flow2.2" depart="9.00" departLane="15_0" departPos="5.10" departSpeed="0.00" departDelay="3.12" arrival="43.00" arrivalLane="9_1" arrivalPos="151.66" arrivalSpeed="36.35" duration="34.00" routeLength="578.86" waitingTime="0.00" waitingCount="0" stopTime="0.00" timeLoss="18.07" rerouteNo="0" devices="tripinfo_flow2.2" vType="DEFAULT_VEHTYPE" speedFactor="1.12" vaporized=""/>
    <tripinfo id="flow1.5" depart="18.00" departLane="10_0" departPos="5.10" departSpeed="0.00" departDelay="3.31" arrival="43.00" arrivalLane="5_0" arrivalPos="241.33" arrivalSpeed="40.32" duration="25.00" routeLength="566.36" waitingTime="0.00" waitingCount="0" stopTime="0.00" timeLoss="10.71" rerouteNo="0" devices="tripinfo_flow1.5" vType="DEFAULT_VEHTYPE" speedFactor="1.02" vaporized=""/>
    <tripinfo id="flow2.3" depart="12.00" departLane="15_0" departPos="5.10" departSpeed="0.00" departDelay="3.19" arrival="47.00" arrivalLane="9_0" arrivalPos="151.66" arrivalSpeed="36.14" duration="35.00" routeLength="578.86" waitingTime="0.00" waitingCount="0" stopTime="0.00" timeLoss="15.45" rerouteNo="0" devices="tripinfo_flow2.3" vType="DEFAULT_VEHTYPE" speedFactor="0.93" vaporized=""/>
    <tripinfo id="flow1.6" depart="22.00" departLane="10_0" departPos="5.10" departSpeed="0.00" departDelay="4.37" arrival="47.00" arrivalLane="5_0" arrivalPos="241.33" arrivalSpeed="38.23" duration="25.00" routeLength="566.36" waitingTime="0.00" waitingCount="0" stopTime="0.00" timeLoss="10.27" rerouteNo="0" devices="tripinfo_flow1.6" vType="DEFAULT_VEHTYPE" speedFactor="0.98" vaporized=""/>
    <tripinfo id="flow2.4" depart="15.00" departLane="15_0" departPos="5.10" departSpeed="0.00" departDelay="3.25" arrival="49.00" arrivalLane="9_1" arrivalPos="151.66" arrivalSpeed="37.17" duration="34.00" routeLength="578.86" waitingTime="0.00" waitingCount="0" stopTime="0.00" timeLoss="14.87" rerouteNo="0" devices="tripinfo_flow2.4" vType="DEFAULT_VEHTYPE" speedFactor="0.94" vaporized=""/>
    <tripinfo id="flow1.7" depart="25.00" departLane="10_0" departPos="5.10" departSpeed="0.00" departDelay="4.43" arrival="51.00" arrivalLane="5_0" arrivalPos="241.33" arrivalSpeed="32.86" duration="26.00" routeLength="566.36" waitingTime="0.00" waitingCount="0" stopTime="0.00" timeLoss="8.09" rerouteNo="0" devices="tripinfo_flow1.7" vType="DEFAULT_VEHTYPE" speedFactor="0.83" vaporized=""/>
    <tripinfo id="flow2.5" depart="18.00" departLane="15_0" departPos="5.10" departSpeed="0.00" departDelay="3.31" arrival="52.00" arrivalLane="9_1" arrivalPos="151.66" arrivalSpeed="37.15" duration="34.00" routeLength="578.86" waitingTime="0.00" waitingCount="0" stopTime="0.00" timeLoss="15.93" rerouteNo="0" devices="tripinfo_flow2.5" vType="DEFAULT_VEHTYPE" speedFactor="1.01" vaporized=""/>
    <tripinfo id="flow1.8" depart="28.00" departLane="10_0" departPos="5.10" departSpeed="0.00" departDelay="4.50" arrival="53.00" arrivalLane="5_0" arrivalPos="241.33" arrivalSpeed="36.26" duration="25.00" routeLength="566.36" waitingTime="0.00" waitingCount="0" stopTime="0.00" timeLoss="8.58" rerouteNo="0" devices="tripinfo_flow1.8" vType="DEFAULT_VEHTYPE" speedFactor="0.92" vaporized=""/>
    <tripinfo id="flow2.6" depart="21.00" departLane="15_0" departPos="5.10" departSpeed="0.00" departDelay="3.37" arrival="55.00" arrivalLane="9_1" arrivalPos="151.66" arrivalSpeed="35.32" duration="34.00" routeLength="578.86" waitingTime="0.00" waitingCount="0" stopTime="0.00" timeLoss="14.04" rerouteNo="0" devices="tripinfo_flow2.6" vType="DEFAULT_VEHTYPE" speedFactor="0.89" vaporized=""/>
    <tripinfo id="flow2.7" depart="24.00" departLane="15_0" departPos="5.10" departSpeed="0.00" departDelay="3.43" arrival="59.00" arrivalLane="9_0" arrivalPos="151.66" arrivalSpeed="34.14" duration="35.00" routeLength="578.86" waitingTime="0.00" waitingCount="0" stopTime="0.00" timeLoss="14.72" rerouteNo="0" devices="tripinfo_flow2.7" vType="DEFAULT_VEHTYPE" speedFactor="0.87" vaporized=""/>
    <tripinfo id="flow3.0" depart="3.00" departLane="10_0" departPos="5.10" departSpeed="0.00" departDelay="3.00" arrival="63.00" arrivalLane="2_0" arrivalPos="219.91" arrivalSpeed="30.87" duration="60.00" routeLength="548.96" waitingTime="22.00" waitingCount="1" stopTime="0.00" timeLoss="45.84" rerouteNo="0" devices="tripinfo_flow3.0" vType="DEFAULT_VEHTYPE" speedFactor="1.08" vaporized=""/>
    <tripinfo id="flow4.0" depart="3.00" departLane="15_0" departPos="5.10" departSpeed="0.00" departDelay="3.00" arrival="64.00" arrivalLane="3_0" arrivalPos="239.09" arrivalSpeed="31.08" duration="61.00" routeLength="509.28" waitingTime="22.00" waitingCount="1" stopTime="0.00" timeLoss="43.81" rerouteNo="0" devices="tripinfo_flow4.0" vType="DEFAULT_VEHTYPE" speedFactor="1.03" vaporized=""/>
    <tripinfo id="flow3.1" depart="34.00" departLane="10_0" departPos="5.10" departSpeed="0.00" departDelay="5.65" arrival="66.00" arrivalLane="2_0" arrivalPos="219.91" arrivalSpeed="30.26" duration="32.00" routeLength="548.96" waitingTime="0.00" waitingCount="0" stopTime="0.00" timeLoss="18.81" rerouteNo="0" devices="tripinfo_flow3.1" vType="DEFAULT_VEHTYPE" speedFactor="1.17" vaporized=""/>
    <tripinfo id="flow4.1" depart="33.00" departLane="15_0" departPos="5.10" departSpeed="0.00" departDelay="4.87" arrival="68.00" arrivalLane="3_0" arrivalPos="239.09" arrivalSpeed="34.33" duration="35.00" routeLength="509.28" waitingTime="0.00" waitingCount="0" stopTime="0.00" timeLoss="17.17" rerouteNo="0" devices="tripinfo_flow4.1" vType="DEFAULT_VEHTYPE" speedFactor="1.01" vaporized=""/>
    <tripinfo id="flow8.0" depart="2.00" departLane="4_0" departPos="5.10" departSpeed="0.00" departDelay="2.00" arrival="80.00" arrivalLane="2_0" arrivalPos="219.91" arrivalSpeed="30.70" duration="78.00" routeLength="483.08" waitingTime="43.00" waitingCount="1" stopTime="0.00" timeLoss="65.13" rerouteNo="0" devices="tripinfo_flow8.0" vType="DEFAULT_VEHTYPE" speedFactor="0.94" vaporized=""/>
    <tripinfo id="flow5.0" depart="0.00" departLane="1_0" departPos="5.10" departSpeed="0.00" departDelay="0.00" arrival="82.00" arrivalLane="3_0" arrivalPos="239.09" arrivalSpeed="32.19" duration="82.00" routeLength="482.91" waitingTime="46.00" waitingCount="1" stopTime="0.00" timeLoss="66.78" rerouteNo="0" devices="tripinfo_flow5.0" vType="DEFAULT_VEHTYPE" speedFactor="0.83" vaporized=""/>
    <tripinfo id="flow8.1" depart="11.00" departLane="4_0" departPos="5.10" departSpeed="0.00" departDelay="-0.88" arrival="84.00" arrivalLane="2_0" arrivalPos="219.91" arrivalSpeed="31.04" duration="73.00" routeLength="483.08" waitingTime="38.00" waitingCount="1" stopTime="0.00" timeLoss="59.91" rerouteNo="0" devices="tripinfo_flow8.1" vType="DEFAULT_VEHTYPE" speedFactor="0.94" vaporized=""/>
    <tripinfo id="flow9.0" depart="5.00" departLane="4_0" departPos="5.10" departSpeed="0.00" departDelay="5.00" arrival="85.00" arrivalLane="5_0" arrivalPos="241.33" arrivalSpeed="29.23" duration="80.00" routeLength="486.65" waitingTime="41.00" waitingCount="1" stopTime="0.00" timeLoss="63.89" rerouteNo="0" devices="tripinfo_flow9.0" vType="DEFAULT_VEHTYPE" speedFactor="0.86" vaporized=""/>
    <tripinfo id="flow8.2" depart="23.00" departLane="4_0" departPos="5.10" departSpeed="0.00" departDelay="-0.76" arrival="86.00" arrivalLane="2_0" arrivalPos="219.91" arrivalSpeed="32.31" duration="63.00" routeLength="483.08" waitingTime="27.00" waitingCount="1" stopTime="0.00" timeLoss="52.02" rerouteNo="0" devices="tripinfo_flow8.2" vType="DEFAULT_VEHTYPE" speedFactor="1.13" vaporized=""/>
    <tripinfo id="flow8.3" depart="35.00" departLane="4_0" departPos="5.10" departSpeed="0.00" departDelay="-0.64" arrival="88.00" arrivalLane="2_0" arrivalPos="219.91" arrivalSpeed="32.74" duration="53.00" routeLength="483.08" waitingTime="16.00" waitingCount="1" stopTime="0.00" timeLoss="40.85" rerouteNo="0" devices="tripinfo_flow8.3" vType="DEFAULT_VEHTYPE" speedFactor="1.03" vaporized=""/>
    <tripinfo id="flow10.0" depart="0.00" departLane="4_0" departPos="5.10" departSpeed="0.00" departDelay="0.00" arrival="92.00" arrivalLane="9_0" arrivalPos="151.66" arrivalSpeed="36.25" duration="92.00" routeLength="572.25" waitingTime="54.00" waitingCount="2" stopTime="0.00" timeLoss="74.60" rerouteNo="0" devices="tripinfo_flow10.0" vType="DEFAULT_VEHTYPE" speedFactor="0.94" vaporized=""/>
    <tripinfo id="flow6.0" depart="3.00" departLane="1_0" departPos="5.10" departSpeed="0.00" departDelay="3.00" arrival="92.00" arrivalLane="5_0" arrivalPos="241.33" arrivalSpeed="30.13" duration="89.00" routeLength="482.55" waitingTime="49.00" waitingCount="2" stopTime="0.00" timeLoss="75.90" rerouteNo="0" devices="tripinfo_flow6.0" vType="DEFAULT_VEHTYPE" speedFactor="1.05" vaporized=""/>
    <tripinfo id="flow5.1" depart="11.00" departLane="1_0" departPos="5.10" departSpeed="0.00" departDelay="-0.92" arrival="96.00" arrivalLane="3_0" arrivalPos="239.09" arrivalSpeed="32.37" duration="85.00" routeLength="482.91" waitingTime="44.00" waitingCount="2" stopTime="0.00" timeLoss="74.56" rerouteNo="0" devices="tripinfo_flow5.1" vType="DEFAULT_VEHTYPE" speedFactor="1.16" vaporized=""/>
    <tripinfo id="flow7.0" depart="6.00" departLane="1_0" departPos="5.10" departSpeed="0.00" departDelay="6.00" arrival="97.00" arrivalLane="9_0" arrivalPos="151.66" arrivalSpeed="34.85" duration="91.00" routeLength="538.42" waitingTime="47.00" waitingCount="2" stopTime="0.00" timeLoss="74.20" rerouteNo="0" devices="tripinfo_flow7.0" vType="DEFAULT_VEHTYPE" speedFactor="0.89" vaporized=""/>
    <tripinfo id="flow8.4" depart="47.00" departLane="4_0" departPos="5.10" departSpeed="0.00" departDelay="-0.52" arrival="97.00" arrivalLane="2_0" arrivalPos="219.91" arrivalSpeed="31.40" duration="50.00" routeLength="483.08" waitingTime="6.00" waitingCount="1" stopTime="0.00" timeLoss="35.10" rerouteNo="0" devices="tripinfo_flow8.4" vType="DEFAULT_VEHTYPE" speedFactor="0.85" vaporized=""/>
    <tripinfo id="flow5.2" depart="23.00" departLane="1_0" departPos="5.10" departSpeed="0.00" departDelay="-0.84" arrival="98.00" arrivalLane="3_0" arrivalPos="239.09" arrivalSpeed="34.47" duration="75.00" routeLength="482.91" waitingTime="31.00" waitingCount="2" stopTime="0.00" timeLoss="61.41" rerouteNo="0" devices="tripinfo_flow5.2" vType="DEFAULT_VEHTYPE" speedFactor="0.93" vaporized=""/>
    <tripinfo id="flow5.3" depart="35.00" departLane="1_0" departPos="5.10" departSpeed="0.00" departDelay="-0.76" arrival="99.00" arrivalLane="3_0" arrivalPos="239.09" arrivalSpeed="33.96" duration="64.00" routeLength="482.91" waitingTime="19.00" waitingCount="2" stopTime="0.00" timeLoss="51.08" rerouteNo="0" devices="tripinfo_flow5.3" vType="DEFAULT_VEHTYPE" speedFactor="0.96" vaporized=""/>
    <tripinfo id="flow8.5" depart="59.00" departLane="4_0" departPos="5.10" departSpeed="0.00" departDelay="-0.41" arrival="99.00" arrivalLane="2_0" arrivalPos="219.91" arrivalSpeed="30.14" duration="40.00" routeLength="483.08" waitingTime="0.00" waitingCount="0" stopTime="0.00" timeLoss="27.81" rerouteNo="0" devices="tripinfo_flow8.5" vType="DEFAULT_VEHTYPE" speedFactor="1.02" vaporized=""/>
    <tripinfo id="flow5.4" depart="47.00" departLane="1_0" departPos="5.10" departSpeed="0.00" departDelay="-0.68" arrival="101.00" arrivalLane="3_0" arrivalPos="239.09" arrivalSpeed="21.67" duration="54.00" routeLength="482.91" waitingTime="7.00" waitingCount="1" stopTime="0.00" timeLoss="43.51" rerouteNo="0" devices="tripinfo_flow5.4" vType="DEFAULT_VEHTYPE" speedFactor="1.17" vaporized=""/>
    <tripinfo id="flow8.6" depart="71.00" departLane="4_0" departPos="5.10" departSpeed="0.00" departDelay="-0.29" arrival="101.00" arrivalLane="2_0" arrivalPos="219.91" arrivalSpeed="31.83" duration="30.00" routeLength="483.08" waitingTime="0.00" waitingCount="0" stopTime="0.00" timeLoss="16.32" rerouteNo="0" devices="tripinfo_flow8.6" vType="DEFAULT_VEHTYPE" speedFactor="0.94" vaporized=""/>
    <tripinfo id="flow5.5" depart="59.00" departLane="1_0" departPos="5.10" departSpeed="0.00" departDelay="-0.60" arrival="102.00" arrivalLane="3_0" arrivalPos="239.09" arrivalSpeed="28.64" duration="43.00" routeLength="482.91" waitingTime="0.00" waitingCount="0" stopTime="0.00" timeLoss="30.72" rerouteNo="0" devices="tripinfo_flow5.5" vType="DEFAULT_VEHTYPE" speedFactor="0.99" vaporized=""/>
    <tripinfo id="flow5.6" depart="71.00" departLane="1_0" departPos="5.10" departSpeed="0.00" departDelay="-0.52" arrival="104.00" arrivalLane="3_0" arrivalPos="239.09" arrivalSpeed="32.54" duration="33.00" routeLength="482.91" waitingTime="0.00" waitingCount="0" stopTime="0.00" timeLoss="21.31" rerouteNo="0" devices="tripinfo_flow5.6" vType="DEFAULT_VEHTYPE" speedFactor="1.06" vaporized=""/>
    <tripinfo id="flow1.9" depart="31.00" departLane="10_0" departPos="5.10" departSpeed="0.00" departDelay="4.56" arrival="114.00" arrivalLane="5_0" arrivalPos="241.33" arrivalSpeed="32.10" duration="83.00" routeLength="566.36" waitingTime="46.00" waitingCount="1" stopTime="0.00" timeLoss="70.88" rerouteNo="0" devices="tripinfo_flow1.9" vType="DEFAULT_VEHTYPE" speedFactor="1.18" vaporized=""/>
    <tripinfo id="flow1.10" depart="37.00" departLane="10_0" departPos="5.10" departSpeed="0.00" departDelay="7.62" arrival="115.00" arrivalLane="5_1" arrivalPos="241.33" arrivalSpeed="33.64" duration="78.00" routeLength="566.36" waitingTime="37.00" waitingCount="1" stopTime="0.00" timeLoss="63.15" rerouteNo="0" devices="tripinfo_flow1.10" vType="DEFAULT_VEHTYPE" speedFactor="0.99" vaporized=""/>
    <tripinfo id="flow2.8" depart="27.00" departLane="15_0" departPos="5.10" departSpeed="0.00" departDelay="3.50" arrival="116.00" arrivalLane="9_0" arrivalPos="151.66" arrivalSpeed="35.77" duration="89.00" routeLength="578.86" waitingTime="48.00" waitingCount="1" stopTime="0.00" timeLoss="69.60" rerouteNo="0" devices="tripinfo_flow2.8" vType="DEFAULT_VEHTYPE" speedFactor="0.95" vaporized=""/>
    <tripinfo id="flow1.11" depart="40.00" departLane="10_0" departPos="5.10" departSpeed="0.00" departDelay="7.68" arrival="116.00" arrivalLane="5_0" arrivalPos="241.33" arrivalSpeed="31.99" duration="76.00" routeLength="566.36" waitingTime="36.00" waitingCount="1" stopTime="0.00" timeLoss="61.07" rerouteNo="0" devices="tripinfo_flow1.11" vType="DEFAULT_VEHTYPE" speedFactor="0.97" vaporized=""/>
    <tripinfo id="flow2.9" depart="30.00" departLane="15_0" departPos="5.10" departSpeed="0.00" departDelay="3.56" arrival="117.00" arrivalLane="9_0" arrivalPos="151.66" arrivalSpeed="33.74" duration="87.00" routeLength="578.86" waitingTime="46.00" waitingCount="1" stopTime="0.00" timeLoss="71.69" rerouteNo="0" devices="tripinfo_flow2.9" vType="DEFAULT_VEHTYPE" speedFactor="1.15" vaporized=""/>
    <tripinfo id="flow2.10" depart="36.00" departLane="15_0" departPos="5.10" departSpeed="0.00" departDelay="6.62" arrival="117.00" arrivalLane="9_1" arrivalPos="151.66" arrivalSpeed="36.08" duration="81.00" routeLength="578.86" waitingTime="44.00" waitingCount="1" stopTime="0.00" timeLoss="63.81" rerouteNo="0" devices="tripinfo_flow2.10" vType="DEFAULT_VEHTYPE" speedFactor="1.02" vaporized=""/>
    <tripinfo id="flow1.12" depart="43.00" departLane="10_0" departPos="5.10" departSpeed="0.00" departDelay="7.74" arrival="117.00" arrivalLane="5_1" arrivalPos="241.33" arrivalSpeed="29.40" duration="74.00" routeLength="566.36" waitingTime="32.00" waitingCount="1" stopTime="0.00" timeLoss="61.03" rerouteNo="0" devices="tripinfo_flow1.12" vType="DEFAULT_VEHTYPE" speedFactor="1.10" vaporized=""/>
    <tripinfo id="flow1.13" depart="46.00" departLane="10_0" departPos="5.10" departSpeed="0.00" departDelay="7.81" arrival="118.00" arrivalLane="5_0" arrivalPos="241.33" arrivalSpeed="31.36" duration="72.00" routeLength="566.36" waitingTime="32.00" waitingCount="1" stopTime="0.00" timeLoss="58.87" rerouteNo="0" devices="tripinfo_flow1.13" vType="DEFAULT_VEHTYPE" speedFactor="1.09" vaporized=""/>
    <tripinfo id="flow2.12" depart="42.00" departLane="15_0" departPos="5.10" departSpeed="0.00" departDelay="6.74" arrival="119.00" arrivalLane="9_0" arrivalPos="151.66" arrivalSpeed="35.07" duration="77.00" routeLength="578.86" waitingTime="37.00" waitingCount="1" stopTime="0.00" timeLoss="56.70" rerouteNo="0" devices="tripinfo_flow2.12" vType="DEFAULT_VEHTYPE" speedFactor="0.90" vaporized=""/>
    <tripinfo id="flow1.14" depart="49.00" departLane="10_0" departPos="5.10" departSpeed="0.00" departDelay="7.87" arrival="119.00" arrivalLane="5_1" arrivalPos="241.33" arrivalSpeed="30.90" duration="70.00" routeLength="566.36" waitingTime="30.00" waitingCount="1" stopTime="0.00" timeLoss="55.90" rerouteNo="0" devices="tripinfo_flow1.14" vType="DEFAULT_VEHTYPE" speedFactor="1.04" vaporized=""/>
    <tripinfo id="flow2.11" depart="39.00" departLane="15_0" departPos="5.10" departSpeed="0.00" departDelay="6.68" arrival="120.00" arrivalLane="9_1" arrivalPos="151.66" arrivalSpeed="35.96" duration="81.00" routeLength="578.86" waitingTime="42.00" waitingCount="1" stopTime="0.00" timeLoss="65.33" rerouteNo="0" devices="tripinfo_flow2.11" vType="DEFAULT_VEHTYPE" speedFactor="1.18" vaporized=""/>
    <tripinfo id="flow1.15" depart="52.00" departLane="10_0" departPos="5.10" departSpeed="0.00" departDelay="7.93" arrival="120.00" arrivalLane="5_0" arrivalPos="241.33" arrivalSpeed="29.93" duration="68.00" routeLength="566.36" waitingTime="29.00" waitingCount="1" stopTime="0.00" timeLoss="53.25" rerouteNo="0" devices="tripinfo_flow1.15" vType="DEFAULT_VEHTYPE" speedFactor="1.00" vaporized=""/>
    <tripinfo id="flow1.17" depart="58.00" departLane="10_0" departPos="5.10" departSpeed="0.00" departDelay="8.05" arrival="120.00" arrivalLane="5_1" arrivalPos="241.33" arrivalSpeed="30.59" duration="62.00" routeLength="566.36" waitingTime="22.00" waitingCount="1" stopTime="0.00" timeLoss="47.86" rerouteNo="0" devices="tripinfo_flow1.17" vType="DEFAULT_VEHTYPE" speedFactor="1.02" vaporized=""/>
    <tripinfo id="flow2.13" depart="45.00" departLane="15_0" departPos="5.10" departSpeed="0.00" departDelay="6.81" arrival="121.00" arrivalLane="9_0" arrivalPos="151.66" arrivalSpeed="37.27" duration="76.00" routeLength="578.86" waitingTime="31.00" waitingCount="1" stopTime="0.00" timeLoss="58.35" rerouteNo="0" devices="tripinfo_flow2.13" vType="DEFAULT_VEHTYPE" speedFactor="1.04" vaporized=""/>
    <tripinfo id="flow2.14" depart="48.00" departLane="15_0" departPos="5.10" departSpeed="0.00" departDelay="6.87" arrival="121.00" arrivalLane="9_1" arrivalPos="151.66" arrivalSpeed="35.07" duration="73.00" routeLength="578.86" waitingTime="33.00" waitingCount="1" stopTime="0.00" timeLoss="56.65" rerouteNo="0" devices="tripinfo_flow2.14" vType="DEFAULT_VEHTYPE" speedFactor="1.09" vaporized=""/>
    <tripinfo id="flow1.16" depart="55.00" departLane="10_0" departPos="5.10" departSpeed="0.00" departDelay="7.99" arrival="121.00" arrivalLane="5_0" arrivalPos="241.33" arrivalSpeed="31.25" duration="66.00" routeLength="566.36" waitingTime="26.00" waitingCount="1" stopTime="0.00" timeLoss="49.79" rerouteNo="0" devices="tripinfo_flow1.16" vType="DEFAULT_VEHTYPE" speedFactor="0.88" vaporized=""/>
    <tripinfo id="flow2.16" depart="54.00" departLane="15_0" departPos="5.10" departSpeed="0.00" departDelay="6.99" arrival="122.00" arrivalLane="9_0" arrivalPos="151.66" arrivalSpeed="33.77" duration="68.00" routeLength="578.86" waitingTime="28.00" waitingCount="1" stopTime="0.00" timeLoss="47.84" rerouteNo="0" devices="tripinfo_flow2.16" vType="DEFAULT_VEHTYPE" speedFactor="0.85" vaporized=""/>
    <tripinfo id="flow1.19" depart="64.00" departLane="10_0" departPos="5.10" departSpeed="0.00" departDelay="8.18" arrival="122.00" arrivalLane="5_1" arrivalPos="241.33" arrivalSpeed="32.26" duration="58.00" routeLength="566.36" waitingTime="17.00" waitingCount="1" stopTime="0.00" timeLoss="41.40" rerouteNo="0" devices="tripinfo_flow1.19" vType="DEFAULT_VEHTYPE" speedFactor="0.90" vaporized=""/>
    <tripinfo id="flow1.18" depart="61.00" departLane="10_0" departPos="5.10" departSpeed="0.00" departDelay="8.12" arrival="123.00" arrivalLane="5_0" arrivalPos="241.33" arrivalSpeed="30.39" duration="62.00" routeLength="566.36" waitingTime="22.00" waitingCount="1" stopTime="0.00" timeLoss="47.76" rerouteNo="0" devices="tripinfo_flow1.18" vType="DEFAULT_VEHTYPE" speedFactor="1.00" vaporized=""/>
    <tripinfo id="flow1.20" depart="70.00" departLane="10_0" departPos="5.10" departSpeed="0.00" departDelay="11.24" arrival="123.00" arrivalLane="5_1" arrivalPos="241.33" arrivalSpeed="32.34" duration="53.00" routeLength="566.36" waitingTime="12.00" waitingCount="1" stopTime="0.00" timeLoss="39.53" rerouteNo="0" devices="tripinfo_flow1.20" vType="DEFAULT_VEHTYPE" speedFactor="1.08" vaporized=""/>
    <tripinfo id="flow2.15" depart="51.00" departLane="15_0" departPos="5.10" departSpeed="0.00" departDelay="6.93" arrival="124.00" arrivalLane="9_1" arrivalPos="151.66" arrivalSpeed="35.56" duration="73.00" routeLength="578.86" waitingTime="31.00" waitingCount="1" stopTime="0.00" timeLoss="52.78" rerouteNo="0" devices="tripinfo_flow2.15" vType="DEFAULT_VEHTYPE" speedFactor="0.90" vaporized=""/>
    <tripinfo id="flow1.22" depart="76.00" departLane="10_0" departPos="5.10" departSpeed="0.00" departDelay="11.36" arrival="124.00" arrivalLane="5_1" arrivalPos="241.33" arrivalSpeed="33.23" duration="48.00" routeLength="566.36" waitingTime="7.00" waitingCount="1" stopTime="0.00" timeLoss="32.28" rerouteNo="0" devices="tripinfo_flow1.22" vType="DEFAULT_VEHTYPE" speedFactor="0.91" vaporized=""/>
    <tripinfo id="flow2.17" depart="57.00" departLane="15_0" departPos="5.10" departSpeed="0.00" departDelay="7.05" arrival="125.00" arrivalLane="9_1" arrivalPos="151.66" arrivalSpeed="37.57" duration="68.00" routeLength="578.86" waitingTime="28.00" waitingCount="1" stopTime="0.00" timeLoss="52.18" rerouteNo="0" devices="tripinfo_flow2.17" vType="DEFAULT_VEHTYPE" speedFactor="1.10" vaporized=""/>
    <tripinfo id="flow2.18" depart="60.00" departLane="15_0" departPos="5.10" departSpeed="0.00" departDelay="7.12" arrival="125.00" arrivalLane="9_0" arrivalPos="151.66" arrivalSpeed="35.43" duration="65.00" routeLength="578.86" waitingTime="20.00" waitingCount="1" stopTime="0.00" timeLoss="46.78" rerouteNo="0" devices="tripinfo_flow2.18" vType="DEFAULT_VEHTYPE" speedFactor="1.00" vaporized=""/>
    <tripinfo id="flow1.21" depart="73.00" departLane="10_0" departPos="5.10" departSpeed="0.00" departDelay="11.30" arrival="125.00" arrivalLane="5_0" arrivalPos="241.33" arrivalSpeed="31.81" duration="52.00" routeLength="566.36" waitingTime="10.00" waitingCount="1" stopTime="0.00" timeLoss="36.48" rerouteNo="0" devices="tripinfo_flow1.21" vType="DEFAULT_VEHTYPE" speedFactor="0.94" vaporized=""/>
    <tripinfo id="flow2.19" depart="63.00" departLane="15_0" departPos="5.10" departSpeed="0.00" departDelay="7.18" arrival="126.00" arrivalLane="9_0" arrivalPos="151.66" arrivalSpeed="36.42" duration="63.00" routeLength="578.86" waitingTime="17.00" waitingCount="1" stopTime="0.00" timeLoss="47.42" rerouteNo="0" devices="tripinfo_flow2.19" vType="DEFAULT_VEHTYPE" speedFactor="1.14" vaporized=""/>
    <tripinfo id="flow1.23" depart="79.00" departLane="10_0" departPos="5.10" departSpeed="0.00" departDelay="11.43" arrival="126.00" arrivalLane="5_1" arrivalPos="241.33" arrivalSpeed="33.50" duration="47.00" routeLength="566.36" waitingTime="6.00" waitingCount="1" stopTime="0.00" timeLoss="33.12" rerouteNo="0" devices="tripinfo_flow1.23" vType="DEFAULT_VEHTYPE" speedFactor="1.04" vaporized=""/>
    <tripinfo id="flow1.25" depart="85.00" departLane="10_0" departPos="5.10" departSpeed="0.00" departDelay="11.55" arrival="127.00" arrivalLane="5_0" arrivalPos="241.33" arrivalSpeed="32.58" duration="42.00" routeLength="566.36" waitingTime="0.00" waitingCount="0" stopTime="0.00" timeLoss="26.40" rerouteNo="0" devices="tripinfo_flow1.25" vType="DEFAULT_VEHTYPE" speedFactor="0.96" vaporized=""/>
    <tripinfo id="flow2.20" depart="69.00" departLane="15_0" departPos="5.10" departSpeed="0.00" departDelay="10.24" arrival="128.00" arrivalLane="9_1" arrivalPos="151.66" arrivalSpeed="38.46" duration="59.00" routeLength="578.86" waitingTime="18.00" waitingCount="1" stopTime="0.00" timeLoss="42.98" rerouteNo="0" devices="tripinfo_flow2.20" vType="DEFAULT_VEHTYPE" speedFactor="1.12" vaporized=""/>
    <tripinfo id="flow1.24" depart="82.00" departLane="10_0" departPos="5.10" departSpeed="0.00" departDelay="11.49" arrival="128.00" arrivalLane="5_1" arrivalPos="241.33" arrivalSpeed="33.58" duration="46.00" routeLength="566.36" waitingTime="3.00" waitingCount="1" stopTime="0.00" timeLoss="31.42" rerouteNo="0" devices="tripinfo_flow1.24" vType="DEFAULT_VEHTYPE" speedFactor="1.02" vaporized=""/>
    <tripinfo id="flow1.27" depart="91.00" departLane="10_0" departPos="5.10" departSpeed="0.00" departDelay="11.67" arrival="128.00" arrivalLane="5_0" arrivalPos="241.33" arrivalSpeed="32.04" duration="37.00" routeLength="566.36" waitingTime="0.00" waitingCount="0" stopTime="0.00" timeLoss="22.57" rerouteNo="0" devices="tripinfo_flow1.27" vType="DEFAULT_VEHTYPE" speedFactor="1.01" vaporized=""/>
    <tripinfo id="flow2.21" depart="72.00" departLane="15_0" departPos="5.10" departSpeed="0.00" departDelay="10.30" arrival="129.00" arrivalLane="9_0" arrivalPos="151.66" arrivalSpeed="35.24" duration="57.00" routeLength="578.86" waitingTime="12.00" waitingCount="1" stopTime="0.00" timeLoss="36.43" rerouteNo="0" devices="tripinfo_flow2.21" vType="DEFAULT_VEHTYPE" speedFactor="0.88" vaporized=""/>